                         Program Version 5.0.3 -  RELEASE  -
|  1> !B3LYP DEF2-TZVP D3BJ
|  2> !IRC TightSCF defgrid2
|  3> %SCF
|  4>     MaxIter 2000       # Here setting MaxIter to a very high number. Intended for systems that require sometimes 1000 iterations before converging (very rare).
|  5>     DIISMaxEq 5        # Default value is 5. A value of 15-40 necessary for difficult systems.
|  6>     directresetfreq 15 # Default value is 15. A value of 1 (very expensive) is sometimes required. A value between 1 and 15 may be more cost-effective.
|  7> END
|  8> %CPCM EPSILON 6.02 REFRAC 1.3723 END
|  9> %PAL NPROCS 32 END
| 10> %maxcore 2000
| 11> %IRC
| 12>     MaxIter 2000
| 13>     InitHess calc_numfreq
| 14>     Direction both
| 15>     PrintLevel 1
| 16> end
| 17> * xyzfile 1 1 TS.xyz
| 18>
| 19>
| 20>                          ****END OF INPUT****

CARTESIAN COORDINATES (ANGSTROEM)
---------------------------------
  C     -2.978099    1.864266    1.663674
  C     -1.842843    2.624707    1.416967
  C     -0.626720    2.285153    2.013300
  C     -0.556876    1.165246    2.846548
  C     -1.692502    0.407088    3.089772
  C     -2.905561    0.755527    2.500543
  H     -3.918772    2.138272    1.204228
  H     -3.789635    0.160995    2.690963
  H     -1.897469    3.488376    0.765620
  H      0.383932    0.867183    3.293897
  H     -1.631323   -0.459594    3.734883
  C      0.543437    3.146946    1.756961
  N      1.485187    3.338895    2.790733
  H      0.334671    4.047117    1.196286
  H      1.068264    2.380488    0.233290
  H      1.819560    4.283783    2.920591
  H      1.328226    2.838998    3.654826
  Cu     2.298983    2.301013    1.139959

 Total Charge           Charge          ....    1
 Multiplicity           Mult            ....    1
 Number of Electrons    NEL             ....   86
 Basis Dimension        Dim             ....  347

ORBITAL ENERGIES
----------------

  NO   OCC          E(Eh)            E(eV)
   0   2.0000    -323.068742     -8791.1474
   1   2.0000     -38.864313     -1057.5517
   2   2.0000     -34.069190      -927.0698
   3   2.0000     -34.068788      -927.0588
   4   2.0000     -34.068257      -927.0444
   5   2.0000     -14.394429      -391.6923
   6   2.0000     -10.305285      -280.4211
   7   2.0000     -10.224143      -278.2131
   8   2.0000     -10.208652      -277.7915
   9   2.0000     -10.207286      -277.7544
  10   2.0000     -10.202705      -277.6297
  11   2.0000     -10.202104      -277.6134
  12   2.0000     -10.201174      -277.5880
  13   2.0000      -4.354688      -118.4971
  14   2.0000      -2.853364       -77.6440
  15   2.0000      -2.849220       -77.5312
  16   2.0000      -2.842499       -77.3483
  17   2.0000      -0.984140       -26.7798
  18   2.0000      -0.892058       -24.2741
  19   2.0000      -0.802863       -21.8470
  20   2.0000      -0.779938       -21.2232
  21   2.0000      -0.714317       -19.4375
  22   2.0000      -0.644343       -17.5335
  23   2.0000      -0.627905       -17.0862
  24   2.0000      -0.585580       -15.9344
  25   2.0000      -0.559797       -15.2328
  26   2.0000      -0.519780       -14.1439
  27   2.0000      -0.491364       -13.3707
  28   2.0000      -0.478312       -13.0155
  29   2.0000      -0.471645       -12.8341
  30   2.0000      -0.452234       -12.3059
  31   2.0000      -0.445804       -12.1309
  32   2.0000      -0.398734       -10.8501
  33   2.0000      -0.393532       -10.7086
  34   2.0000      -0.379695       -10.3320
  35   2.0000      -0.373103       -10.1526
  36   2.0000      -0.347425        -9.4539
  37   2.0000      -0.338377        -9.2077
  38   2.0000      -0.335665        -9.1339
  39   2.0000      -0.327706        -8.9173
  40   2.0000      -0.293127        -7.9764
  41   2.0000      -0.288854        -7.8601
  42   2.0000      -0.264342        -7.1931
  43   0.0000      -0.115961        -3.1554
  44   0.0000      -0.053469        -1.4550
  45   0.0000      -0.044163        -1.2017
  46   0.0000      -0.025683        -0.6989
  47   0.0000       0.019704         0.5362

MULLIKEN ATOMIC CHARGES
-----------------------
   0 C :   -0.112862
   1 C :   -0.205948
   2 C :    0.082996
   3 C :   -0.207400
   4 C :   -0.139550
   5 C :   -0.123951
   6 H :    0.149605
   7 H :    0.150950
   8 H :    0.148875
   9 H :    0.152492
  10 H :    0.148585
  11 C :    0.194818
  12 N :   -0.444637
  13 H :    0.199547
  14 H :   -0.092256
  15 H :    0.295240
  16 H :    0.291738
  17 Cu:    0.511759
Sum of atomic charges:    1.0000000

LOEWDIN ATOMIC CHARGES
----------------------
   0 C :   -0.123451
   1 C :   -0.086912
   2 C :   -0.153674
   3 C :   -0.094637
   4 C :   -0.123961
   5 C :   -0.116826
   6 H :    0.154329
   7 H :    0.153783
   8 H :    0.158732
   9 H :    0.158869
  10 H :    0.154064
  11 C :   -0.181353
  12 N :    0.045832
  13 H :    0.170707
  14 H :    0.043906
  15 H :    0.204124
  16 H :    0.197640
  17 Cu:    0.438825

  Mayer bond orders larger than 0.100000
B(  0-C ,  1-C ) :   1.4226 B(  0-C ,  5-C ) :   1.3859 B(  0-C ,  6-H ) :   0.9710
B(  1-C ,  2-C ) :   1.3529 B(  1-C ,  8-H ) :   0.9674 B(  2-C ,  3-C ) :   1.2938
B(  2-C , 11-C ) :   1.0286 B(  3-C ,  4-C ) :   1.4492 B(  3-C ,  9-H ) :   0.9656
B(  4-C ,  5-C ) :   1.3794 B(  4-C , 10-H ) :   0.9689 B(  5-C ,  7-H ) :   0.9654
B( 11-C , 12-N ) :   0.9928 B( 11-C , 13-H ) :   0.9771 B( 11-C , 14-H ) :   0.2505
B( 11-C , 17-Cu) :   0.4574 B( 12-N , 15-H ) :   0.8967 B( 12-N , 16-H ) :   0.8969
B( 12-N , 17-Cu) :   0.2912 B( 14-H , 17-Cu) :   0.6284

Dispersion correction           -0.035746276
FINAL SINGLE POINT ENERGY     -1967.121981489601
Dispersion correction            ... done

DIPOLE MOMENT
-------------
                                X             Y             Z
Electronic contribution:     20.90793       1.41804      -5.95486
Nuclear contribution   :    -18.59289      -0.27231       6.56119
                        -----------------------------------------
Total Dipole Moment    :      2.31504       1.14574       0.60633
                        -----------------------------------------
Magnitude (a.u.)       :      2.65325
Magnitude (Debye)      :      6.74404

VIBRATIONAL FREQUENCIES
-----------------------

Scaling factor for frequencies =  1.000000000 (already applied!)

   0:         0.00 cm**-1
   1:         0.00 cm**-1
   2:         0.00 cm**-1
   3:         0.00 cm**-1
   4:         0.00 cm**-1
   5:         0.00 cm**-1
   6:      -828.17 cm**-1 ***imaginary mode***
   7:        48.40 cm**-1
   8:        81.18 cm**-1
   9:       173.56 cm**-1
  10:       227.96 cm**-1
  11:       262.05 cm**-1
  12:       358.48 cm**-1
  13:       411.06 cm**-1
  14:       423.86 cm**-1
  15:       488.23 cm**-1
  16:       525.94 cm**-1
  17:       582.07 cm**-1
  18:       632.58 cm**-1
  19:       635.34 cm**-1
  20:       692.16 cm**-1
  21:       709.22 cm**-1
  22:       791.44 cm**-1
  23:       809.38 cm**-1
  24:       856.13 cm**-1
  25:       945.28 cm**-1
  26:       989.14 cm**-1
  27:      1015.94 cm**-1
  28:      1022.08 cm**-1
  29:      1050.02 cm**-1
  30:      1094.57 cm**-1
  31:      1104.90 cm**-1
  32:      1139.19 cm**-1
  33:      1181.99 cm**-1
  34:      1182.87 cm**-1
  35:      1208.73 cm**-1
  36:      1246.06 cm**-1
  37:      1336.59 cm**-1
  38:      1368.81 cm**-1
  39:      1435.17 cm**-1
  40:      1492.65 cm**-1
  41:      1533.70 cm**-1
  42:      1622.73 cm**-1
  43:      1623.37 cm**-1
  44:      1639.64 cm**-1
  45:      1780.53 cm**-1
  46:      3161.36 cm**-1
  47:      3173.28 cm**-1
  48:      3187.75 cm**-1
  49:      3191.90 cm**-1
  50:      3197.12 cm**-1
  51:      3206.97 cm**-1
  52:      3519.03 cm**-1
  53:      3619.82 cm**-1

IR SPECTRUM
-----------

 Mode   freq       eps      Int      T**2         TX        TY        TZ
       cm**-1   L/(mol*cm) km/mol    a.u.
----------------------------------------------------------------------------
  7:     48.40   0.000340    1.72  0.002193  ( 0.024417 -0.038934 -0.009021)
  8:     81.18   0.000405    2.05  0.001559  ( 0.004045 -0.034772 -0.018254)
  9:    173.56   0.001503    7.60  0.002703  ( 0.024876  0.044609 -0.009681)
 10:    227.96   0.003012   15.22  0.004123  ( 0.020896  0.009171 -0.060015)
 11:    262.05   0.000526    2.66  0.000626  ( 0.023933 -0.002680 -0.006795)
 12:    358.48   0.008708   44.01  0.007580  (-0.035836 -0.013872  0.078127)
 13:    411.06   0.001266    6.40  0.000961  ( 0.025275  0.009126 -0.015472)
 14:    423.86   0.017818   90.05  0.013119  (-0.075990 -0.032353  0.079356)
 15:    488.23   0.008126   41.07  0.005194  ( 0.054555 -0.006620 -0.046627)
 16:    525.94   0.007123   36.00  0.004227  ( 0.013026  0.028912 -0.056753)
 17:    582.07   0.005935   29.99  0.003182  (-0.012820  0.037102  0.040508)
 18:    632.58   0.011357   57.40  0.005603  ( 0.068477  0.026179  0.015115)
 19:    635.34   0.026855  135.71  0.013191  ( 0.109162  0.025589  0.024886)
 20:    692.16   0.042548  215.02  0.019183  ( 0.129719 -0.043628 -0.021273)
 21:    709.22   0.024864  125.65  0.010941  (-0.038923  0.067278  0.069994)
 22:    791.44   0.002308   11.66  0.000910  (-0.011240 -0.009797 -0.026221)
 23:    809.38   0.003797   19.19  0.001464  ( 0.026285 -0.000197 -0.027801)
 24:    856.13   0.000069    0.35  0.000025  (-0.003963 -0.002163 -0.002172)
 25:    945.28   0.000384    1.94  0.000127  (-0.001379  0.003409  0.010647)
 26:    989.14   0.000050    0.25  0.000016  ( 0.003206 -0.000633  0.002268)
 27:   1015.94   0.000041    0.21  0.000013  (-0.003218 -0.001464 -0.000388)
 28:   1022.08   0.000390    1.97  0.000119  (-0.010045 -0.000526  0.004246)
 29:   1050.02   0.001765    8.92  0.000524  ( 0.013860  0.016281  0.008202)
 30:   1094.57   0.006641   33.56  0.001893  ( 0.004470  0.035104  0.025317)
 31:   1104.90   0.007371   37.25  0.002082  (-0.013577 -0.005127 -0.043257)
 32:   1139.19   0.005547   28.03  0.001520  ( 0.024600 -0.015736 -0.025824)
 33:   1181.99   0.000075    0.38  0.000020  (-0.003242 -0.000162 -0.003052)
 34:   1182.87   0.003652   18.46  0.000964  (-0.004680  0.005663  0.030160)
 35:   1208.73   0.000769    3.89  0.000199  (-0.011694 -0.007308 -0.002903)
 36:   1246.06   0.017688   89.39  0.004430  (-0.054519 -0.033223 -0.018803)
 37:   1336.59   0.002072   10.47  0.000484  (-0.021055 -0.006269 -0.001059)
 38:   1368.81   0.001184    5.98  0.000270  (-0.005626 -0.015191  0.002724)
 39:   1435.17   0.011221   56.71  0.002440  ( 0.039693  0.029328  0.002052)
 40:   1492.65   0.004212   21.29  0.000881  (-0.023551  0.011767 -0.013695)
 41:   1533.70   0.000266    1.34  0.000054  ( 0.001693  0.004641 -0.005449)
 42:   1622.73   0.001848    9.34  0.000355  ( 0.013401  0.008632  0.010066)
 43:   1623.37   0.016667   84.23  0.003204  (-0.029536 -0.013544 -0.046347)
 44:   1639.64   0.003413   17.25  0.000650  (-0.022310 -0.012259 -0.001224)
 45:   1780.53   0.008039   40.62  0.001409  ( 0.022962  0.018355  0.023339)
 46:   3161.36   0.001203    6.08  0.000119  ( 0.010450  0.001561  0.002664)
 47:   3173.28   0.000593    2.99  0.000058  ( 0.000825  0.006755 -0.003459)
 48:   3187.75   0.000150    0.76  0.000015  (-0.002883 -0.001562 -0.001990)
 49:   3191.90   0.000503    2.54  0.000049  ( 0.003530 -0.005611 -0.002282)
 50:   3197.12   0.002272   11.48  0.000222  ( 0.005624 -0.010171  0.009312)
 51:   3206.97   0.001994   10.08  0.000194  (-0.012837 -0.005094  0.001827)
 52:   3519.03   0.026235  132.58  0.002326  (-0.008109 -0.023726 -0.041204)
 53:   3619.82   0.022517  113.79  0.001941  (-0.013851 -0.038539  0.016252)

--------------------------
THERMOCHEMISTRY AT 298.15K
--------------------------

Temperature         ... 298.15 K
Pressure            ... 1.00 atm
Total Mass          ... 170.71 AMU

Throughout the following assumptions are being made:
  (1) The electronic state is orbitally nondegenerate
  (2) There are no thermally accessible electronically excited states
  (3) Hindered rotations indicated by low frequency modes are not
      treated as such but are treated as vibrations and this may
      cause some error
  (4) All equations used are the standard statistical mechanics
      equations for an ideal gas
  (5) All vibrations are strictly harmonic

freq.      48.40  E(vib)   ...       0.53
freq.      81.18  E(vib)   ...       0.48
freq.     173.56  E(vib)   ...       0.38
freq.     227.96  E(vib)   ...       0.33
freq.     262.05  E(vib)   ...       0.29
freq.     358.48  E(vib)   ...       0.22
freq.     411.06  E(vib)   ...       0.19
freq.     423.86  E(vib)   ...       0.18
freq.     488.23  E(vib)   ...       0.15
freq.     525.94  E(vib)   ...       0.13
freq.     582.07  E(vib)   ...       0.11
freq.     632.58  E(vib)   ...       0.09
freq.     635.34  E(vib)   ...       0.09
freq.     692.16  E(vib)   ...       0.07
freq.     709.22  E(vib)   ...       0.07
freq.     791.44  E(vib)   ...       0.05
freq.     809.38  E(vib)   ...       0.05
freq.     856.13  E(vib)   ...       0.04
freq.     945.28  E(vib)   ...       0.03
freq.     989.14  E(vib)   ...       0.02
freq.    1015.94  E(vib)   ...       0.02
freq.    1022.08  E(vib)   ...       0.02
freq.    1050.02  E(vib)   ...       0.02
freq.    1094.57  E(vib)   ...       0.02
freq.    1104.90  E(vib)   ...       0.02
freq.    1139.19  E(vib)   ...       0.01
freq.    1181.99  E(vib)   ...       0.01
freq.    1182.87  E(vib)   ...       0.01
freq.    1208.73  E(vib)   ...       0.01
freq.    1246.06  E(vib)   ...       0.01
freq.    1336.59  E(vib)   ...       0.01
freq.    1368.81  E(vib)   ...       0.01
freq.    1435.17  E(vib)   ...       0.00
freq.    1492.65  E(vib)   ...       0.00
freq.    1533.70  E(vib)   ...       0.00
freq.    1622.73  E(vib)   ...       0.00
freq.    1623.37  E(vib)   ...       0.00
freq.    1639.64  E(vib)   ...       0.00
freq.    1780.53  E(vib)   ...       0.00
freq.    3161.36  E(vib)   ...       0.00
freq.    3173.28  E(vib)   ...       0.00
freq.    3187.75  E(vib)   ...       0.00
freq.    3191.90  E(vib)   ...       0.00
freq.    3197.12  E(vib)   ...       0.00
freq.    3206.97  E(vib)   ...       0.00
freq.    3519.03  E(vib)   ...       0.00
freq.    3619.82  E(vib)   ...       0.00

------------
INNER ENERGY
------------

The inner energy is: U= E(el) + E(ZPE) + E(vib) + E(rot) + E(trans)
    E(el)   - is the total energy from the electronic structure calculation
              = E(kin-el) + E(nuc-el) + E(el-el) + E(nuc-nuc)
    E(ZPE)  - the the zero temperature vibrational energy from the frequency calculation
    E(vib)  - the the finite temperature correction to E(ZPE) due to population
              of excited vibrational states
    E(rot)  - is the rotational thermal energy
    E(trans)- is the translational thermal energy

Summary of contributions to the inner energy U:
Electronic energy                ...  -1967.12198149 Eh
Zero point energy                ...      0.14120130 Eh      88.60 kcal/mol
Thermal vibrational correction   ...      0.00584105 Eh       3.67 kcal/mol
Thermal rotational correction    ...      0.00141627 Eh       0.89 kcal/mol
Thermal translational correction ...      0.00141627 Eh       0.89 kcal/mol
-----------------------------------------------------------------------
Total thermal energy                  -1966.97210660 Eh

Summary of corrections to the electronic energy:
(perhaps to be used in another calculation)
Total thermal correction                  0.00867359 Eh       5.44 kcal/mol
Non-thermal (ZPE) correction              0.14120130 Eh      88.60 kcal/mol
-----------------------------------------------------------------------
Total correction                          0.14987489 Eh      94.05 kcal/mol

--------
ENTHALPY
--------

The enthalpy is H = U + kB*T
                kB is Boltzmann's constant
Total free energy                 ...  -1966.97210660 Eh
Thermal Enthalpy correction       ...      0.00094421 Eh       0.59 kcal/mol
-----------------------------------------------------------------------
Total Enthalpy                    ...  -1966.97116239 Eh

Note: Only C1 symmetry has been detected, increase convergence thresholds
      if your molecule has a higher symmetry. Symmetry factor of 1.0 is
      used for the rotational entropy correction.

Note: Rotational entropy computed according to Herzberg
Infrared and Raman Spectra, Chapter V,1, Van Nostrand Reinhold, 1945
Point Group:  C1, Symmetry Number:   1
Rotational constants in cm-1:     0.104006     0.020437     0.019519

Vibrational entropy computed according to the QRRHO of S. Grimme
Chem.Eur.J. 2012 18 9955

-------
ENTROPY
-------

The entropy contributions are T*S = T*(S(el)+S(vib)+S(rot)+S(trans))
     S(el)   - electronic entropy
     S(vib)  - vibrational entropy
     S(rot)  - rotational entropy
     S(trans)- translational entropy
The entropies will be listed as multiplied by the temperature to get
units of energy

Electronic entropy                ...      0.00000000 Eh      0.00 kcal/mol
Vibrational entropy               ...      0.00973499 Eh      6.11 kcal/mol
Rotational entropy                ...      0.01427425 Eh      8.96 kcal/mol
Translational entropy             ...      0.01962863 Eh     12.32 kcal/mol
-----------------------------------------------------------------------
Final entropy term                ...      0.04363786 Eh     27.38 kcal/mol

In case the symmetry of your molecule has not been determined correctly
or in case you have a reason to use a different symmetry number we print
out the resulting rotational entropy values for sn=1,12 :
 --------------------------------------------------------
|  sn= 1 | S(rot)=       0.01427425 Eh      8.96 kcal/mol|
|  sn= 2 | S(rot)=       0.01361979 Eh      8.55 kcal/mol|
|  sn= 3 | S(rot)=       0.01323696 Eh      8.31 kcal/mol|
|  sn= 4 | S(rot)=       0.01296534 Eh      8.14 kcal/mol|
|  sn= 5 | S(rot)=       0.01275465 Eh      8.00 kcal/mol|
|  sn= 6 | S(rot)=       0.01258251 Eh      7.90 kcal/mol|
|  sn= 7 | S(rot)=       0.01243696 Eh      7.80 kcal/mol|
|  sn= 8 | S(rot)=       0.01231088 Eh      7.73 kcal/mol|
|  sn= 9 | S(rot)=       0.01219967 Eh      7.66 kcal/mol|
|  sn=10 | S(rot)=       0.01210019 Eh      7.59 kcal/mol|
|  sn=11 | S(rot)=       0.01201020 Eh      7.54 kcal/mol|
|  sn=12 | S(rot)=       0.01192805 Eh      7.48 kcal/mol|
 --------------------------------------------------------

-------------------

                      ***********************HURRAY********************
                      ***********************HURRAY********************
                             ****ORCA TERMINATED NORMALLY****
TOTAL RUN TIME: 1 days 7 hours 32 minutes 3 seconds 487 msec
