                         Program Version 5.0.3 -  RELEASE  -
|  1> !B3LYP DEF2-TZVP D3BJ
|  2> !NEB-TS FREQ TightOPT TightSCF defgrid2
|  3> %SCF
|  4>     MaxIter 2000       # Here setting MaxIter to a very high number. Intended for systems that require sometimes 1000 iterations before converging (very rare).
|  5>     DIISMaxEq 5        # Default value is 5. A value of 15-40 necessary for difficult systems.
|  6>     directresetfreq 15 # Default value is 15. A value of 1 (very expensive) is sometimes required. A value between 1 and 15 may be more cost-effective.
|  7> END
|  8> %CPCM EPSILON 6.02 REFRAC 1.3723 END
|  9> %PAL NPROCS 32 END
| 10> %maxcore 2000 # This indicates you want ORCA to use only 2GB per core maximum, so ORCA will use only 2GB*32=64GB of memory in total.
| 11> %NEB
| 12>     NEB_END_XYZFILE "product_opt.xyz"
| 13>     Nimages 100
| 14>     Interpolation IDPP
| 15>     Opt_Method FIRE
| 16> END
| 17> * XYZfile 1 1 reactant_opt_unconstrained.xyz
| 18>
| 19>                          ****END OF INPUT****
 Total Charge           Charge          ....    1
 Multiplicity           Mult            ....    1
 Number of Electrons    NEL             ....   86
Dispersion correction           -0.035949744
FINAL SINGLE POINT ENERGY     -1967.120557778732
Dispersion correction            ... done
Dispersion correction           -0.035918809
FINAL SINGLE POINT ENERGY     -1967.120768729109
Dispersion correction            ... done
Dispersion correction           -0.035925742
FINAL SINGLE POINT ENERGY     -1967.120996182738
Dispersion correction            ... done
FINAL SINGLE POINT ENERGY     -1967.121167257258
FINAL SINGLE POINT ENERGY     -1967.121349217860
FINAL SINGLE POINT ENERGY     -1967.121471321611
FINAL SINGLE POINT ENERGY     -1967.121580459866
FINAL SINGLE POINT ENERGY     -1967.121714402016
FINAL SINGLE POINT ENERGY     -1967.121857958056
FINAL SINGLE POINT ENERGY     -1967.121928561261
FINAL SINGLE POINT ENERGY     -1967.122024306784
FINAL SINGLE POINT ENERGY     -1967.122024537806
FINAL SINGLE POINT ENERGY     -1967.122024728877
FINAL SINGLE POINT ENERGY     -1967.122024946451
FINAL SINGLE POINT ENERGY     -1967.122025116655
FINAL SINGLE POINT ENERGY     -1967.122025285115
FINAL SINGLE POINT ENERGY     -1967.122025442182
Dispersion correction           -0.035779246
FINAL SINGLE POINT ENERGY     -1967.122025583404
Dispersion correction            ... done

CARTESIAN COORDINATES (ANGSTROEM)
---------------------------------
  C     -1.644035   -0.848052   -1.439946
  C     -0.639738    0.101991   -1.314570
  C      0.106342    0.185372   -0.136847
  C     -0.157198   -0.702399    0.909152
  C     -1.161072   -1.651296    0.780669
  C     -1.906656   -1.726076   -0.392970
  H     -2.221899   -0.902281   -2.353250
  H     -2.687311   -2.469200   -0.491209
  H     -0.432601    0.785172   -2.129207
  H      0.428467   -0.674165    1.820000
  H     -1.358654   -2.336984    1.594167
  C      1.145353    1.229020   -0.037437
  N      1.434354    1.787900    1.227150
  H      1.137503    1.957915   -0.835365
  H      2.428603    0.368314   -0.917266
  H      1.555373    2.791061    1.251489
  H      0.925176    1.422011    2.019522
  Cu     3.047993    0.681697    0.445919

Dispersion correction           -0.035779249
FINAL SINGLE POINT ENERGY     -1967.122025703781
Dispersion correction            ... done
                    ***********************HURRAY********************
 Multiplicity           Mult            ....    1
 Number of Electrons    NEL             ....   86
 Basis Dimension        Dim             ....  347

ORBITAL ENERGIES
----------------

  NO   OCC          E(Eh)            E(eV)
   0   2.0000    -323.069014     -8791.1548
   1   2.0000     -38.864660     -1057.5612
   2   2.0000     -34.069538      -927.0793
   3   2.0000     -34.069135      -927.0683
   4   2.0000     -34.068593      -927.0535
   5   2.0000     -14.394280      -391.6883
   6   2.0000     -10.304961      -280.4122
   7   2.0000     -10.224122      -278.2125
   8   2.0000     -10.208645      -277.7914
   9   2.0000     -10.207045      -277.7478
  10   2.0000     -10.202618      -277.6274
  11   2.0000     -10.202027      -277.6113
  12   2.0000     -10.201134      -277.5870
  13   2.0000      -4.355057      -118.5071
  14   2.0000      -2.853823       -77.6565
  15   2.0000      -2.849574       -77.5409
  16   2.0000      -2.842794       -77.3564
  17   2.0000      -0.984025       -26.7767
  18   2.0000      -0.892041       -24.2737
  19   2.0000      -0.802862       -21.8470
  20   2.0000      -0.779890       -21.2219
  21   2.0000      -0.714468       -19.4417
  22   2.0000      -0.644321       -17.5329
  23   2.0000      -0.627725       -17.0813
  24   2.0000      -0.585436       -15.9305
  25   2.0000      -0.559899       -15.2356
  26   2.0000      -0.519618       -14.1395
  27   2.0000      -0.491525       -13.3751
  28   2.0000      -0.477178       -12.9847
  29   2.0000      -0.473091       -12.8735
  30   2.0000      -0.452147       -12.3035
  31   2.0000      -0.445769       -12.1300
  32   2.0000      -0.399040       -10.8584
  33   2.0000      -0.393400       -10.7050
  34   2.0000      -0.379884       -10.3372
  35   2.0000      -0.373088       -10.1522
  36   2.0000      -0.347987        -9.4692
  37   2.0000      -0.338657        -9.2153
  38   2.0000      -0.335949        -9.1416
  39   2.0000      -0.328010        -8.9256
  40   2.0000      -0.293433        -7.9847
  41   2.0000      -0.288765        -7.8577
  42   2.0000      -0.263973        -7.1831
  43   0.0000      -0.115859        -3.1527
  44   0.0000      -0.054196        -1.4748
  45   0.0000      -0.043654        -1.1879
  46   0.0000      -0.024098        -0.6557
  47   0.0000       0.019841         0.5399

-------
TIMINGS
-------

Dispersion correction           -0.035779253
FINAL SINGLE POINT ENERGY     -1967.122025845837
                    ***********************HURRAY************************

DIPOLE MOMENT
-------------
                                X             Y             Z
Electronic contribution:     20.69896       4.87573       4.12611
Nuclear contribution   :    -19.12156      -3.18465      -2.84279
                        -----------------------------------------
Total Dipole Moment    :      1.57740       1.69108       1.28331
                        -----------------------------------------
Magnitude (a.u.)       :      2.64478
Magnitude (Debye)      :      6.72250

Dispersion correction in the Hessian             ... done   (      0.4 sec)

VIBRATIONAL FREQUENCIES
-----------------------

Scaling factor for frequencies =  1.000000000  (already applied!)

   0:         0.00 cm**-1
   1:         0.00 cm**-1
   2:         0.00 cm**-1
   3:         0.00 cm**-1
   4:         0.00 cm**-1
   5:         0.00 cm**-1
   6:      -838.31 cm**-1 ***imaginary mode***
   7:        47.82 cm**-1
   8:        76.36 cm**-1
   9:       168.56 cm**-1
  10:       234.47 cm**-1
  11:       259.52 cm**-1
  12:       362.73 cm**-1
  13:       409.67 cm**-1
  14:       421.16 cm**-1
  15:       486.42 cm**-1
  16:       526.19 cm**-1
  17:       582.16 cm**-1
  18:       631.60 cm**-1
  19:       634.39 cm**-1
  20:       694.19 cm**-1
  21:       709.62 cm**-1
  22:       791.79 cm**-1
  23:       809.21 cm**-1
  24:       855.76 cm**-1
  25:       945.72 cm**-1
  26:       988.77 cm**-1
  27:      1016.32 cm**-1
  28:      1021.92 cm**-1
  29:      1049.19 cm**-1
  30:      1094.17 cm**-1
  31:      1105.03 cm**-1
  32:      1141.39 cm**-1
  33:      1180.78 cm**-1
  34:      1183.02 cm**-1
  35:      1207.32 cm**-1
  36:      1244.54 cm**-1
  37:      1337.33 cm**-1
  38:      1368.10 cm**-1
  39:      1433.54 cm**-1
  40:      1492.71 cm**-1
  41:      1533.89 cm**-1
  42:      1623.25 cm**-1
  43:      1623.86 cm**-1
  44:      1639.49 cm**-1
  45:      1778.48 cm**-1
  46:      3170.66 cm**-1
  47:      3174.83 cm**-1
  48:      3183.74 cm**-1
  49:      3193.33 cm**-1
  50:      3197.10 cm**-1
  51:      3201.72 cm**-1
  52:      3527.96 cm**-1
  53:      3627.36 cm**-1

IR SPECTRUM
-----------

 Mode   freq       eps      Int      T**2         TX        TY        TZ
       cm**-1   L/(mol*cm) km/mol    a.u.
----------------------------------------------------------------------------
  7:     47.82   0.000439    2.22  0.002867  (-0.029811  0.039992 -0.019453)
  8:     76.36   0.000379    1.91  0.001547  ( 0.001856 -0.039239  0.002031)
  9:    168.56   0.001668    8.43  0.003088  (-0.030108 -0.045347  0.011168)
 10:    234.47   0.003307   16.71  0.004401  ( 0.052836  0.005565 -0.039725)
 11:    259.52   0.000323    1.63  0.000389  (-0.003696 -0.002612  0.019190)
 12:    362.73   0.009771   49.38  0.008406  ( 0.070794  0.007632 -0.057757)
 13:    409.67   0.000607    3.07  0.000462  ( 0.019570  0.008505 -0.002624)
 14:    421.16   0.016106   81.39  0.011934  (-0.097334 -0.034097  0.036025)
 15:    486.42   0.007402   37.41  0.004749  ( 0.067222 -0.003116 -0.014846)
 16:    526.19   0.010118   51.13  0.006000  ( 0.054643  0.024545 -0.049114)
 17:    582.16   0.005917   29.90  0.003172  (-0.027600  0.042585  0.024427)
 18:    631.60   0.018228   92.12  0.009006  (-0.059609 -0.054404 -0.049931)
 19:    634.39   0.015240   77.02  0.007497  ( 0.057424  0.041174  0.050039)
 20:    694.19   0.045271  228.78  0.020351  ( 0.129529 -0.009180  0.059068)
 21:    709.62   0.027739  140.18  0.012198  (-0.085187  0.068431  0.016085)
 22:    791.79   0.001844    9.32  0.000727  ( 0.004254 -0.014547 -0.022291)
 23:    809.21   0.004138   20.91  0.001596  (-0.038170  0.000376  0.011773)
 24:    855.76   0.000034    0.17  0.000013  (-0.001924 -0.002445 -0.001683)
 25:    945.72   0.000359    1.81  0.000118  (-0.007795  0.004410  0.006188)
 26:    988.77   0.000048    0.24  0.000015  ( 0.001977  0.000751  0.003277)
 27:   1016.32   0.000028    0.14  0.000009  (-0.001837 -0.001789 -0.001396)
 28:   1021.92   0.000354    1.79  0.000108  ( 0.010061  0.002372  0.001093)
 29:   1049.19   0.001772    8.95  0.000527  ( 0.006940  0.019833  0.009240)
 30:   1094.17   0.006920   34.97  0.001974  (-0.011436  0.039300  0.017269)
 31:   1105.03   0.006977   35.26  0.001970  ( 0.009514 -0.014127 -0.040989)
 32:   1141.39   0.005263   26.60  0.001439  (-0.034897  0.013707  0.005759)
 33:   1180.78   0.002870   14.51  0.000759  (-0.014834  0.009136  0.021332)
 34:   1183.02   0.000252    1.27  0.000066  (-0.007198  0.001950  0.003277)
 35:   1207.32   0.000923    4.66  0.000238  (-0.009124 -0.010794 -0.006223)
 36:   1244.54   0.017405   87.96  0.004364  (-0.033341 -0.047062 -0.032216)
 37:   1337.33   0.002180   11.02  0.000509  (-0.017220 -0.011108 -0.009424)
 38:   1368.10   0.001181    5.97  0.000269  (-0.005352 -0.015063  0.003713)
 39:   1433.54   0.011777   59.51  0.002564  ( 0.030585  0.038285  0.012745)
 40:   1492.71   0.004162   21.03  0.000870  (-0.013836  0.002392 -0.025939)
 41:   1533.89   0.000296    1.50  0.000060  ( 0.004084  0.004006 -0.005246)
 42:   1623.25   0.000453    2.29  0.000087  ( 0.005137  0.007397  0.002458)
 43:   1623.86   0.018332   92.64  0.003523  (-0.002299 -0.030094 -0.051108)
 44:   1639.49   0.003160   15.97  0.000601  (-0.016631 -0.016440 -0.007391)
 45:   1778.48   0.007796   39.40  0.001368  ( 0.004642  0.025890  0.026001)
 46:   3170.66   0.001125    5.69  0.000111  ( 0.007313  0.005380  0.005323)
 47:   3174.83   0.000314    1.58  0.000031  (-0.001020 -0.003855  0.003862)
 48:   3183.74   0.000516    2.61  0.000051  (-0.003844 -0.005825 -0.001370)
 49:   3193.33   0.002726   13.77  0.000266  (-0.003691  0.005738 -0.014826)
 50:   3197.10   0.000345    1.74  0.000034  ( 0.004436 -0.003610 -0.000984)
 51:   3201.72   0.001786    9.03  0.000174  (-0.010429 -0.008029 -0.000938)
 52:   3527.96   0.025012  126.40  0.002212  (-0.015737  0.030686  0.031987)
 53:   3627.36   0.022389  113.14  0.001926  (-0.015635 -0.037468  0.016669)

--------------------------
THERMOCHEMISTRY AT 298.15K
--------------------------

Temperature         ... 298.15 K
Pressure            ... 1.00 atm
Total Mass          ... 170.71 AMU

Throughout the following assumptions are being made:
  (1) The electronic state is orbitally nondegenerate
  (2) There are no thermally accessible electronically excited states
  (3) Hindered rotations indicated by low frequency modes are not
      treated as such but are treated as vibrations and this may
      cause some error
  (4) All equations used are the standard statistical mechanics
      equations for an ideal gas
  (5) All vibrations are strictly harmonic

freq.      47.82  E(vib)   ...       0.53
freq.      76.36  E(vib)   ...       0.49
freq.     168.56  E(vib)   ...       0.38
freq.     234.47  E(vib)   ...       0.32
freq.     259.52  E(vib)   ...       0.30
freq.     362.73  E(vib)   ...       0.22
freq.     409.67  E(vib)   ...       0.19
freq.     421.16  E(vib)   ...       0.18
freq.     486.42  E(vib)   ...       0.15
freq.     526.19  E(vib)   ...       0.13
freq.     582.16  E(vib)   ...       0.11
freq.     631.60  E(vib)   ...       0.09
freq.     634.39  E(vib)   ...       0.09
freq.     694.19  E(vib)   ...       0.07
freq.     709.62  E(vib)   ...       0.07
freq.     791.79  E(vib)   ...       0.05
freq.     809.21  E(vib)   ...       0.05
freq.     855.76  E(vib)   ...       0.04
freq.     945.72  E(vib)   ...       0.03
freq.     988.77  E(vib)   ...       0.02
freq.    1016.32  E(vib)   ...       0.02
freq.    1021.92  E(vib)   ...       0.02
freq.    1049.19  E(vib)   ...       0.02
freq.    1094.17  E(vib)   ...       0.02
freq.    1105.03  E(vib)   ...       0.02
freq.    1141.39  E(vib)   ...       0.01
freq.    1180.78  E(vib)   ...       0.01
freq.    1183.02  E(vib)   ...       0.01
freq.    1207.32  E(vib)   ...       0.01
freq.    1244.54  E(vib)   ...       0.01
freq.    1337.33  E(vib)   ...       0.01
freq.    1368.10  E(vib)   ...       0.01
freq.    1433.54  E(vib)   ...       0.00
freq.    1492.71  E(vib)   ...       0.00
freq.    1533.89  E(vib)   ...       0.00
freq.    1623.25  E(vib)   ...       0.00
freq.    1623.86  E(vib)   ...       0.00
freq.    1639.49  E(vib)   ...       0.00
freq.    1778.48  E(vib)   ...       0.00
freq.    3170.66  E(vib)   ...       0.00
freq.    3174.83  E(vib)   ...       0.00
freq.    3183.74  E(vib)   ...       0.00
freq.    3193.33  E(vib)   ...       0.00
freq.    3197.10  E(vib)   ...       0.00
freq.    3201.72  E(vib)   ...       0.00
freq.    3527.96  E(vib)   ...       0.00
freq.    3627.36  E(vib)   ...       0.00

------------
INNER ENERGY
------------

The inner energy is: U= E(el) + E(ZPE) + E(vib) + E(rot) + E(trans)
    E(el)   - is the total energy from the electronic structure calculation
              = E(kin-el) + E(nuc-el) + E(el-el) + E(nuc-nuc)
    E(ZPE)  - the the zero temperature vibrational energy from the frequency calculation
    E(vib)  - the the finite temperature correction to E(ZPE) due to population
              of excited vibrational states
    E(rot)  - is the rotational thermal energy
    E(trans)- is the translational thermal energy

Summary of contributions to the inner energy U:
Electronic energy                ...  -1967.12202585 Eh
Zero point energy                ...      0.14121713 Eh      88.61 kcal/mol
Thermal vibrational correction   ...      0.00585466 Eh       3.67 kcal/mol
Thermal rotational correction    ...      0.00141627 Eh       0.89 kcal/mol
Thermal translational correction ...      0.00141627 Eh       0.89 kcal/mol
-----------------------------------------------------------------------
Total thermal energy                  -1966.97212152 Eh

Summary of corrections to the electronic energy:
(perhaps to be used in another calculation)
Total thermal correction                  0.00868720 Eh       5.45 kcal/mol
Non-thermal (ZPE) correction              0.14121713 Eh      88.61 kcal/mol
-----------------------------------------------------------------------
Total correction                          0.14990433 Eh      94.07 kcal/mol

--------
ENTHALPY
--------

The enthalpy is H = U + kB*T
                kB is Boltzmann's constant
Total free energy                 ...  -1966.97212152 Eh
Thermal Enthalpy correction       ...      0.00094421 Eh       0.59 kcal/mol
-----------------------------------------------------------------------
Total Enthalpy                    ...  -1966.97117731 Eh

Note: Only C1 symmetry has been detected, increase convergence thresholds
      if your molecule has a higher symmetry. Symmetry factor of 1.0 is
      used for the rotational entropy correction.

Note: Rotational entropy computed according to Herzberg
Infrared and Raman Spectra, Chapter V,1, Van Nostrand Reinhold, 1945
Point Group:  C1, Symmetry Number:   1
Rotational constants in cm-1:     0.103171     0.020544     0.019679

Vibrational entropy computed according to the QRRHO of S. Grimme
Chem.Eur.J. 2012 18 9955

-------
ENTROPY
-------

The entropy contributions are T*S = T*(S(el)+S(vib)+S(rot)+S(trans))
     S(el)   - electronic entropy
     S(vib)  - vibrational entropy
     S(rot)  - rotational entropy
     S(trans)- translational entropy
The entropies will be listed as multiplied by the temperature to get
units of energy

Electronic entropy                ...      0.00000000 Eh      0.00 kcal/mol
Vibrational entropy               ...      0.00976538 Eh      6.13 kcal/mol
Rotational entropy                ...      0.01427173 Eh      8.96 kcal/mol
Translational entropy             ...      0.01962863 Eh     12.32 kcal/mol
-----------------------------------------------------------------------
Final entropy term                ...      0.04366574 Eh     27.40 kcal/mol

In case the symmetry of your molecule has not been determined correctly
or in case you have a reason to use a different symmetry number we print
out the resulting rotational entropy values for sn=1,12 :
 --------------------------------------------------------
|  sn= 1 | S(rot)=       0.01427173 Eh      8.96 kcal/mol|
|  sn= 2 | S(rot)=       0.01361728 Eh      8.54 kcal/mol|
|  sn= 3 | S(rot)=       0.01323445 Eh      8.30 kcal/mol|
|  sn= 4 | S(rot)=       0.01296282 Eh      8.13 kcal/mol|
|  sn= 5 | S(rot)=       0.01275213 Eh      8.00 kcal/mol|
|  sn= 6 | S(rot)=       0.01257999 Eh      7.89 kcal/mol|
|  sn= 7 | S(rot)=       0.01243444 Eh      7.80 kcal/mol|
|  sn= 8 | S(rot)=       0.01230836 Eh      7.72 kcal/mol|
|  sn= 9 | S(rot)=       0.01219716 Eh      7.65 kcal/mol|
|  sn=10 | S(rot)=       0.01209768 Eh      7.59 kcal/mol|
|  sn=11 | S(rot)=       0.01200769 Eh      7.53 kcal/mol|
|  sn=12 | S(rot)=       0.01192553 Eh      7.48 kcal/mol|
 --------------------------------------------------------

-------------------

                             ****ORCA TERMINATED NORMALLY****
TOTAL RUN TIME: 1 days 9 hours 27 minutes 10 seconds 284 msec
