                         Program Version 6.1.0-f.0  -   RELEASE   -
|  1> !B3LYP DEF2-TZVP D3BJ
|  2> !OPT FREQ TightOPT TightSCF defgrid2
|  3> %SCF
|  4>     MaxIter 2000       # Here setting MaxIter to a very high number. Intended for systems that require sometimes 1000 iterations before converging (very rare).
|  5>     DIISMaxEq 5        # Default value is 5. A value of 15-40 necessary for difficult systems.
|  6>     directresetfreq 15 # Default value is 15. A value of 1 (very expensive) is sometimes required. A value between 1 and 15 may be more cost-effective.
|  7> END
|  8> %CPCM EPSILON 6.02 REFRAC 1.3723 END
|  9> %PAL NPROCS 32 END
| 10> %maxcore 2000 # This indicates you want ORCA to use only 2GB per core maximum, so ORCA will use only 2GB*32=64GB of memory in total.
| 11> * xyzfile 1 1 reactant.xyz
| 12>
| 13>                          ****END OF INPUT****
 Total Charge           Charge          ....    1
 Multiplicity           Mult            ....    1
 Number of Electrons    NEL             ....   86
Dispersion correction           -0.033495431
FINAL SINGLE POINT ENERGY     -1967.169378567651
Dispersion correction             ... done (  0.0 sec)
Dispersion correction           -0.033845561
FINAL SINGLE POINT ENERGY     -1967.176764499839
Dispersion correction             ... done (  0.0 sec)
Dispersion correction           -0.034449915
FINAL SINGLE POINT ENERGY     -1967.182585198044
Dispersion correction             ... done (  0.0 sec)
FINAL SINGLE POINT ENERGY     -1967.186438621002
FINAL SINGLE POINT ENERGY     -1967.189334573682
FINAL SINGLE POINT ENERGY     -1967.190995500995
FINAL SINGLE POINT ENERGY     -1967.191839768689
FINAL SINGLE POINT ENERGY     -1967.192389844791
FINAL SINGLE POINT ENERGY     -1967.192829605991
FINAL SINGLE POINT ENERGY     -1967.193251390179
FINAL SINGLE POINT ENERGY     -1967.196138584650
FINAL SINGLE POINT ENERGY     -1967.196248624934
FINAL SINGLE POINT ENERGY     -1967.196315789410
FINAL SINGLE POINT ENERGY     -1967.196328164181
FINAL SINGLE POINT ENERGY     -1967.196335992149
FINAL SINGLE POINT ENERGY     -1967.196344606054
FINAL SINGLE POINT ENERGY     -1967.196347639175
Dispersion correction             ... done (  0.0 sec)
Dispersion correction           -0.037639673
FINAL SINGLE POINT ENERGY     -1967.196348126781
Dispersion correction             ... done (  0.0 sec)
Dispersion correction           -0.037642422
FINAL SINGLE POINT ENERGY     -1967.196347466811
Dispersion correction             ... done (  0.0 sec)
                    ***********************HURRAY********************

CARTESIAN COORDINATES (ANGSTROEM)
---------------------------------
  C     -2.108345    1.075928    1.259631
  C     -1.128876    2.064732    1.320864
  C     -0.627721    2.494640    2.560584
  C     -1.138932    1.935182    3.727715
  C     -2.124501    0.953272    3.664805
  C     -2.602374    0.515734    2.434245
  H     -2.495991    0.760365    0.299600
  H     -3.365337   -0.250503    2.389782
  H     -0.792184    2.548303    0.407600
  H     -0.759678    2.262589    4.688189
  H     -2.513970    0.524528    4.579309
  C      0.535255    3.451298    2.592378
  N      1.792198    2.683441    2.322463
  H      2.146668    2.287340    3.189580
  H      2.519693    3.297677    1.967776
  H      0.600254    3.963658    3.552530
  H      0.437573    4.197624    1.805243
  Cu     1.266233    1.162080    1.132434

 Multiplicity           Mult            ....    1
 Number of Electrons    NEL             ....   86
 Basis Dimension        Dim             ....  347

ORBITAL ENERGIES
----------------

  NO   OCC          E(Eh)            E(eV)
   0   2.0000    -323.020749     -8789.8415
   1   2.0000     -38.808996     -1056.0465
   2   2.0000     -34.013968      -925.5671
   3   2.0000     -34.013867      -925.5644
   4   2.0000     -34.013583      -925.5566
   5   2.0000     -14.381674      -391.3453
   6   2.0000     -10.238684      -278.6088
   7   2.0000     -10.217566      -278.0341
   8   2.0000     -10.209627      -277.8181
   9   2.0000     -10.205022      -277.6928
  10   2.0000     -10.202554      -277.6256
  11   2.0000     -10.201999      -277.6105
  12   2.0000     -10.200121      -277.5594
  13   2.0000      -4.303062      -117.0923
  14   2.0000      -2.798276       -76.1450
  15   2.0000      -2.798024       -76.1381
  16   2.0000      -2.796773       -76.1041
  17   2.0000      -0.950175       -25.8556
  18   2.0000      -0.888449       -24.1759
  19   2.0000      -0.796390       -21.6709
  20   2.0000      -0.778511       -21.1844
  21   2.0000      -0.706109       -19.2142
  22   2.0000      -0.639966       -17.4144
  23   2.0000      -0.615834       -16.7577
  24   2.0000      -0.557733       -15.1767
  25   2.0000      -0.540017       -14.6946
  26   2.0000      -0.517201       -14.0738
  27   2.0000      -0.485753       -13.2180
  28   2.0000      -0.482623       -13.1328
  29   2.0000      -0.452455       -12.3119
  30   2.0000      -0.449176       -12.2227
  31   2.0000      -0.422255       -11.4901
  32   2.0000      -0.402973       -10.9655
  33   2.0000      -0.385995       -10.5035
  34   2.0000      -0.372192       -10.1279
  35   2.0000      -0.362737        -9.8706
  36   2.0000      -0.307575        -8.3695
  37   2.0000      -0.296271        -8.0619
  38   2.0000      -0.291841        -7.9414
  39   2.0000      -0.291278        -7.9261
  40   2.0000      -0.285760        -7.7759
  41   2.0000      -0.283349        -7.7103
  42   2.0000      -0.257153        -6.9975
  43   0.0000      -0.089897        -2.4462
  44   0.0000      -0.053188        -1.4473
  45   0.0000      -0.044611        -1.2139
  46   0.0000       0.014849         0.4041
  47   0.0000       0.026762         0.7282

MULLIKEN ATOMIC CHARGES
-----------------------
   0 C :   -0.109857
   1 C :   -0.239290
   2 C :    0.233315
   3 C :   -0.226088
   4 C :   -0.103381
   5 C :   -0.144471
   6 H :    0.151138
   7 H :    0.148963
   8 H :    0.151180
   9 H :    0.142939
  10 H :    0.148979
  11 C :   -0.143865
  12 N :   -0.433721
  13 H :    0.275137
  14 H :    0.276577
  15 H :    0.149870
  16 H :    0.154269
  17 Cu:    0.568308
Sum of atomic charges:    1.0000000

LOEWDIN ATOMIC CHARGES
----------------------
   0 C :   -0.115461
   1 C :   -0.108356
   2 C :   -0.143796
   3 C :   -0.098143
   4 C :   -0.119246
   5 C :   -0.126955
   6 H :    0.154462
   7 H :    0.152833
   8 H :    0.174272
   9 H :    0.156213
  10 H :    0.153491
  11 C :   -0.212489
  12 N :   -0.010570
  13 H :    0.195846
  14 H :    0.192802
  15 H :    0.142615
  16 H :    0.151687
  17 Cu:    0.460796

  Mayer bond orders larger than 0.100000
B(  0-C ,  1-C ) :   1.3769 B(  0-C ,  5-C ) :   1.3879 B(  0-C ,  6-H ) :   0.9702
B(  1-C ,  2-C ) :   1.2295 B(  1-C ,  8-H ) :   0.9656 B(  1-C , 17-Cu) :   0.1280
B(  2-C ,  3-C ) :   1.3991 B(  2-C , 11-C ) :   0.9308 B(  2-C , 12-N ) :  -0.1221
B(  3-C ,  4-C ) :   1.3872 B(  3-C ,  9-H ) :   0.9767 B(  4-C ,  5-C ) :   1.3889
B(  4-C , 10-H ) :   0.9721 B(  5-C ,  7-H ) :   0.9688 B( 11-C , 12-N ) :   0.9253
B( 11-C , 15-H ) :   0.9845 B( 11-C , 16-H ) :   0.9708 B( 12-N , 13-H ) :   0.9077
B( 12-N , 14-H ) :   0.9093 B( 12-N , 17-Cu) :   0.5679

Dispersion correction           -0.037644010
FINAL SINGLE POINT ENERGY     -1967.196342134942

DIPOLE MOMENT
-------------

Method             : SCF
Type of density    : Electron Density
Multiplicity       :   1
Irrep              :   0
Energy             : -1967.1586981252437454 Eh
Basis              : AO
                                X                 Y                 Z
Electronic contribution:     12.491347675      -6.774363138      -9.543628325
Nuclear contribution   :    -10.348117198       6.994591030       9.137592113
                        -----------------------------------------
Total Dipole Moment    :      2.143230477       0.220227892      -0.406036213
                        -----------------------------------------
Magnitude (a.u.)       :      2.192442156
Magnitude (Debye)      :      5.572745087

VIBRATIONAL FREQUENCIES
-----------------------

Scaling factor for frequencies =  1.000000000  (already applied!)

     0:       0.00 cm**-1
     1:       0.00 cm**-1
     2:       0.00 cm**-1
     3:       0.00 cm**-1
     4:       0.00 cm**-1
     5:       0.00 cm**-1
     6:      43.92 cm**-1
     7:      72.56 cm**-1
     8:     104.11 cm**-1
     9:     151.84 cm**-1
    10:     299.16 cm**-1
    11:     349.15 cm**-1
    12:     412.81 cm**-1
    13:     424.08 cm**-1
    14:     509.98 cm**-1
    15:     539.69 cm**-1
    16:     630.88 cm**-1
    17:     635.93 cm**-1
    18:     727.06 cm**-1
    19:     775.81 cm**-1
    20:     818.79 cm**-1
    21:     862.33 cm**-1
    22:     926.56 cm**-1
    23:     937.78 cm**-1
    24:     978.48 cm**-1
    25:     988.87 cm**-1
    26:    1016.19 cm**-1
    27:    1021.91 cm**-1
    28:    1048.46 cm**-1
    29:    1073.53 cm**-1
    30:    1105.71 cm**-1
    31:    1158.78 cm**-1
    32:    1179.80 cm**-1
    33:    1194.63 cm**-1
    34:    1232.29 cm**-1
    35:    1308.73 cm**-1
    36:    1343.95 cm**-1
    37:    1363.20 cm**-1
    38:    1396.32 cm**-1
    39:    1484.17 cm**-1
    40:    1495.71 cm**-1
    41:    1526.32 cm**-1
    42:    1618.47 cm**-1
    43:    1622.71 cm**-1
    44:    1636.95 cm**-1
    45:    3066.21 cm**-1
    46:    3117.00 cm**-1
    47:    3131.23 cm**-1
    48:    3171.61 cm**-1
    49:    3180.93 cm**-1
    50:    3188.96 cm**-1
    51:    3199.25 cm**-1
    52:    3467.49 cm**-1
    53:    3531.40 cm**-1

IR SPECTRUM
-----------

 Mode   freq       eps      Int      T**2         TX        TY        TZ
       cm**-1   L/(mol*cm) km/mol    a.u.
----------------------------------------------------------------------------
  6:     43.92   0.000760    3.84  0.005398  (-0.066553  0.008821  0.029842)
  7:     72.56   0.000699    3.53  0.003005  ( 0.052606 -0.005390 -0.014439)
  8:    104.11   0.000571    2.89  0.001712  (-0.013001 -0.031038  0.024083)
  9:    151.84   0.002997   15.15  0.006160  ( 0.061884 -0.038612 -0.028978)
 10:    299.16   0.000430    2.17  0.000448  ( 0.020745  0.003585 -0.002283)
 11:    349.15   0.000315    1.59  0.000282  (-0.002579  0.010339 -0.012966)
 12:    412.81   0.000629    3.18  0.000475  ( 0.018791 -0.010580  0.003190)
 13:    424.08   0.000298    1.51  0.000219  ( 0.012617 -0.001766  0.007562)
 14:    509.98   0.002267   11.46  0.001387  ( 0.031887 -0.016689 -0.009591)
 15:    539.69   0.007679   38.81  0.004440  ( 0.020786  0.033181 -0.053920)
 16:    630.88   0.007651   38.66  0.003784  ( 0.015091  0.050723 -0.031365)
 17:    635.93   0.000051    0.26  0.000025  ( 0.001908 -0.001920  0.004227)
 18:    727.06   0.017038   86.10  0.007313  ( 0.057966 -0.062787 -0.003296)
 19:    775.81   0.008701   43.97  0.003500  ( 0.049253 -0.030799 -0.011205)
 20:    818.79   0.004272   21.59  0.001628  (-0.036847  0.007099  0.014837)
 21:    862.33   0.000415    2.10  0.000150  ( 0.005547  0.002508 -0.010642)
 22:    926.56   0.007927   40.06  0.002670  (-0.037823  0.030992  0.016692)
 23:    937.78   0.002523   12.75  0.000840  (-0.025298  0.005765  0.012898)
 24:    978.48   0.003417   17.27  0.001090  ( 0.030735 -0.008193 -0.008829)
 25:    988.87   0.000203    1.03  0.000064  (-0.005796  0.000495  0.005511)
 26:   1016.19   0.000184    0.93  0.000057  ( 0.004774 -0.005011 -0.002951)
 27:   1021.91   0.000408    2.06  0.000125  ( 0.008751 -0.002283 -0.006544)
 28:   1048.46   0.001105    5.58  0.000329  (-0.010637 -0.014513 -0.002263)
 29:   1073.53   0.016609   83.94  0.004828  ( 0.021658 -0.046672 -0.046698)
 30:   1105.71   0.003485   17.61  0.000984  ( 0.010306 -0.029450 -0.003178)
 31:   1158.78   0.001220    6.16  0.000328  (-0.002633  0.007631  0.016228)
 32:   1179.80   0.000006    0.03  0.000001  ( 0.000084 -0.000801 -0.000922)
 33:   1194.63   0.000051    0.26  0.000013  ( 0.001275  0.003349 -0.000703)
 34:   1232.29   0.002894   14.63  0.000733  ( 0.016833  0.020316  0.006076)
 35:   1308.73   0.000489    2.47  0.000117  ( 0.007260  0.004912  0.006307)
 36:   1343.95   0.000153    0.77  0.000036  (-0.003790  0.004213 -0.001849)
 37:   1363.20   0.000006    0.03  0.000001  ( 0.000872 -0.000659 -0.000382)
 38:   1396.32   0.003561   18.00  0.000796  (-0.025832 -0.011342  0.000034)
 39:   1484.17   0.001712    8.65  0.000360  (-0.003715  0.003194 -0.018330)
 40:   1495.71   0.000868    4.39  0.000181  ( 0.001365  0.013278 -0.001736)
 41:   1526.32   0.001988   10.05  0.000407  ( 0.011491  0.015782  0.005042)
 42:   1618.47   0.000997    5.04  0.000192  ( 0.009725  0.002903 -0.009444)
 43:   1622.71   0.009046   45.71  0.001740  ( 0.035306 -0.001639  0.022145)
 44:   1636.95   0.001718    8.68  0.000328  ( 0.017944  0.001783 -0.001551)
 45:   3066.21   0.005829   29.46  0.000593  ( 0.000125 -0.023097 -0.007729)
 46:   3117.00   0.001947    9.84  0.000195  ( 0.000051  0.002368 -0.013760)
 47:   3131.23   0.001187    6.00  0.000118  ( 0.007936  0.004590 -0.005849)
 48:   3171.61   0.000714    3.61  0.000070  (-0.004275 -0.005111 -0.005082)
 49:   3180.93   0.000422    2.13  0.000041  (-0.003978 -0.004730 -0.001800)
 50:   3188.96   0.002886   14.59  0.000282  (-0.001655 -0.000725 -0.016708)
 51:   3199.25   0.001929    9.75  0.000188  ( 0.010522  0.008674 -0.001481)
 52:   3467.49   0.005545   28.02  0.000499  (-0.019807 -0.001555 -0.010211)
 53:   3531.40   0.010687   54.01  0.000944  (-0.008052 -0.018163  0.023445)

--------------------------
THERMOCHEMISTRY AT 298.15K
--------------------------

Temperature         ...   298.15 K
Pressure            ...     1.00 atm
Total Mass          ...   170.71 AMU
Quasi RRHO          ...     True
Cut-Off Frequency   ...     1.00 cm^-1

Throughout the following assumptions are being made:
  (1) The electronic state is orbitally nondegenerate
  (2) There are no thermally accessible electronically excited states
  (3) Hindered rotations indicated by low frequency modes are not
      treated as such but are treated as vibrations and this may
      cause some error
  (4) All equations used are the standard statistical mechanics
      equations for an ideal gas
  (5) All vibrations are strictly harmonic

freq.      43.92  E(vib)   ...       0.53
freq.      72.56  E(vib)   ...       0.49
freq.     104.11  E(vib)   ...       0.46
freq.     151.84  E(vib)   ...       0.40
freq.     299.16  E(vib)   ...       0.26
freq.     349.15  E(vib)   ...       0.23
freq.     412.81  E(vib)   ...       0.19
freq.     424.08  E(vib)   ...       0.18
freq.     509.98  E(vib)   ...       0.14
freq.     539.69  E(vib)   ...       0.12
freq.     630.88  E(vib)   ...       0.09
freq.     635.93  E(vib)   ...       0.09
freq.     727.06  E(vib)   ...       0.06
freq.     775.81  E(vib)   ...       0.05
freq.     818.79  E(vib)   ...       0.05
freq.     862.33  E(vib)   ...       0.04
freq.     926.56  E(vib)   ...       0.03
freq.     937.78  E(vib)   ...       0.03
freq.     978.48  E(vib)   ...       0.03
freq.     988.87  E(vib)   ...       0.02
freq.    1016.19  E(vib)   ...       0.02
freq.    1021.91  E(vib)   ...       0.02
freq.    1048.46  E(vib)   ...       0.02
freq.    1073.53  E(vib)   ...       0.02
freq.    1105.71  E(vib)   ...       0.02
freq.    1158.78  E(vib)   ...       0.01
freq.    1179.80  E(vib)   ...       0.01
freq.    1194.63  E(vib)   ...       0.01
freq.    1232.29  E(vib)   ...       0.01
freq.    1308.73  E(vib)   ...       0.01
freq.    1343.95  E(vib)   ...       0.01
freq.    1363.20  E(vib)   ...       0.01
freq.    1396.32  E(vib)   ...       0.00
freq.    1484.17  E(vib)   ...       0.00
freq.    1495.71  E(vib)   ...       0.00
freq.    1526.32  E(vib)   ...       0.00
freq.    1618.47  E(vib)   ...       0.00
freq.    1622.71  E(vib)   ...       0.00
freq.    1636.95  E(vib)   ...       0.00
freq.    3066.21  E(vib)   ...       0.00
freq.    3117.00  E(vib)   ...       0.00
freq.    3131.23  E(vib)   ...       0.00
freq.    3171.61  E(vib)   ...       0.00
freq.    3180.93  E(vib)   ...       0.00
freq.    3188.96  E(vib)   ...       0.00
freq.    3199.25  E(vib)   ...       0.00
freq.    3467.49  E(vib)   ...       0.00
freq.    3531.40  E(vib)   ...       0.00

------------
INNER ENERGY
------------

The inner energy is: U= E(el) + E(ZPE) + E(vib) + E(rot) + E(trans)
    E(el)   - is the total energy from the electronic structure calculation
              = E(kin-el) + E(nuc-el) + E(el-el) + E(nuc-nuc)
    E(ZPE)  - the the zero temperature vibrational energy from the frequency calculation
    E(vib)  - the the finite temperature correction to E(ZPE) due to population
              of excited vibrational states
    E(rot)  - is the rotational thermal energy
    E(trans)- is the translational thermal energy

Summary of contributions to the inner energy U:
Electronic energy                ...  -1967.19634213 Eh
Zero point energy                ...      0.14824428 Eh      93.02 kcal/mol
Thermal vibrational correction   ...      0.00584665 Eh       3.67 kcal/mol
Thermal rotational correction    ...      0.00141627 Eh       0.89 kcal/mol
Thermal translational correction ...      0.00141627 Eh       0.89 kcal/mol
-----------------------------------------------------------------------
Total thermal energy                  -1967.03941866 Eh

Summary of corrections to the electronic energy:
(perhaps to be used in another calculation)
Total thermal correction                  0.00867919 Eh       5.45 kcal/mol
Non-thermal (ZPE) correction              0.14824428 Eh      93.02 kcal/mol
-----------------------------------------------------------------------
Total correction                          0.15692348 Eh      98.47 kcal/mol

--------
ENTHALPY
--------

The enthalpy is H = U + kB*T
                kB is Boltzmann's constant
Total thermal energy              ...  -1967.03941866 Eh
Thermal Enthalpy correction       ...      0.00094421 Eh       0.59 kcal/mol
-----------------------------------------------------------------------
Total Enthalpy                    ...  -1967.03847445 Eh

Note: Only C1 symmetry has been detected, increase convergence thresholds
      if your molecule has a higher symmetry. Symmetry factor of 1.0 is
      used for the rotational entropy correction.

Note: Rotational entropy computed according to Herzberg
Infrared and Raman Spectra, Chapter V,1, Van Nostrand Reinhold, 1945
Point Group:  C1, Symmetry Number:   1
Rotational constants in cm-1:     0.070407     0.032275     0.026129

Vibrational entropy computed according to the QRRHO of S. Grimme
Chem.Eur.J. 2012 18 9955 using a reference frequency of 100.0 cm-1

-------
ENTROPY
-------

The entropy contributions are T*S = T*(S(el)+S(vib)+S(rot)+S(trans))
     S(el)   - electronic entropy
     S(vib)  - vibrational entropy
     S(rot)  - rotational entropy
     S(trans)- translational entropy
The entropies will be listed as multiplied by the temperature to get
units of energy

Electronic entropy                ...      0.00000000 Eh      0.00 kcal/mol
Vibrational entropy               ...      0.01008217 Eh      6.33 kcal/mol
Rotational entropy                ...      0.01410501 Eh      8.85 kcal/mol
Translational entropy             ...      0.01962863 Eh     12.32 kcal/mol
-----------------------------------------------------------------------
Final entropy term                ...      0.04381581 Eh     27.49 kcal/mol

In case the symmetry of your molecule has not been determined correctly
or in case you have a reason to use a different symmetry number we print
out the resulting rotational entropy values for sn=1,12:

 non-linear molecules -----------------------------------
|  sn= 1 | S(rot)=       0.01410501 Eh      8.85 kcal/mol|
|  sn= 2 | S(rot)=       0.01345056 Eh      8.44 kcal/mol|
|  sn= 3 | S(rot)=       0.01306773 Eh      8.20 kcal/mol|
|  sn= 4 | S(rot)=       0.01279610 Eh      8.03 kcal/mol|
|  sn= 5 | S(rot)=       0.01258541 Eh      7.90 kcal/mol|
|  sn= 6 | S(rot)=       0.01241327 Eh      7.79 kcal/mol|
|  sn= 7 | S(rot)=       0.01226772 Eh      7.70 kcal/mol|
|  sn= 8 | S(rot)=       0.01214164 Eh      7.62 kcal/mol|
|  sn= 9 | S(rot)=       0.01203044 Eh      7.55 kcal/mol|
|  sn=10 | S(rot)=       0.01193096 Eh      7.49 kcal/mol|
|  sn=11 | S(rot)=       0.01184097 Eh      7.43 kcal/mol|
|  sn=12 | S(rot)=       0.01175881 Eh      7.38 kcal/mol|

                             ****ORCA TERMINATED NORMALLY****
TOTAL RUN TIME: 0 days 0 hours 20 minutes 36 seconds 815 msec
