                         Program Version 5.0.3 -  RELEASE  -
|  1> !B3LYP DEF2-TZVP D3BJ
|  2> !OPT FREQ TIGHTOPT TightSCF defgrid2
|  3> %SCF
|  4>     MaxIter 2000       # Here setting MaxIter to a very high number. Intended for systems that require sometimes 1000 iterations before converging (very rare).
|  5>     DIISMaxEq 5        # Default value is 5. A value of 15-40 necessary for difficult systems.
|  6>     directresetfreq 15 # Default value is 15. A value of 1 (very expensive) is sometimes required. A value between 1 and 15 may be more cost-effective.
|  7> END
|  8> %CPCM EPSILON 6.02 REFRAC 1.3723 END
|  9> %PAL NPROCS 32 END
| 10> %maxcore 2000 # This indicates you want ORCA to use only 2GB per core maximum, so ORCA will use only 2GB*32=64GB of memory in total.
| 11> * xyzfile 1 1 reactant.xyz
| 12>
| 13>                          ****END OF INPUT****
 Total Charge           Charge          ....    1
 Multiplicity           Mult            ....    1
 Number of Electrons    NEL             ....   86
Dispersion correction           -0.033495431
FINAL SINGLE POINT ENERGY     -1967.169376308299
Dispersion correction            ... done
Dispersion correction           -0.033757556
FINAL SINGLE POINT ENERGY     -1967.176217554042
Dispersion correction            ... done
Dispersion correction           -0.034139436
FINAL SINGLE POINT ENERGY     -1967.181283988930
Dispersion correction            ... done
FINAL SINGLE POINT ENERGY     -1967.185352811669
FINAL SINGLE POINT ENERGY     -1967.188433112099
FINAL SINGLE POINT ENERGY     -1967.190107547706
FINAL SINGLE POINT ENERGY     -1967.190922093048
FINAL SINGLE POINT ENERGY     -1967.191545429702
FINAL SINGLE POINT ENERGY     -1967.191920649660
FINAL SINGLE POINT ENERGY     -1967.192345286444
FINAL SINGLE POINT ENERGY     -1967.196137725292
FINAL SINGLE POINT ENERGY     -1967.196173973276
FINAL SINGLE POINT ENERGY     -1967.196202947066
FINAL SINGLE POINT ENERGY     -1967.196221564395
FINAL SINGLE POINT ENERGY     -1967.196227905741
FINAL SINGLE POINT ENERGY     -1967.196232127909
FINAL SINGLE POINT ENERGY     -1967.196233898601
Dispersion correction           -0.037656723
FINAL SINGLE POINT ENERGY     -1967.196234695720
Dispersion correction            ... done
Dispersion correction           -0.037659026
FINAL SINGLE POINT ENERGY     -1967.196234759066
Dispersion correction            ... done
                    ***********************HURRAY********************

CARTESIAN COORDINATES (ANGSTROEM)
---------------------------------
  C     -2.095239    1.079131    1.245260
  C     -1.109209    2.061148    1.316887
  C     -0.623297    2.493031    2.562856
  C     -1.155464    1.941657    3.724268
  C     -2.147303    0.966722    3.650286
  C     -2.610596    0.527608    2.414772
  H     -2.471545    0.763659    0.280726
  H     -3.378722   -0.232928    2.362548
  H     -0.759404    2.541735    0.406803
  H     -0.787798    2.270073    4.688853
  H     -2.553210    0.544471    4.560592
  C      0.543934    3.444532    2.606243
  N      1.798911    2.672915    2.336207
  H      2.165382    2.293713    3.205815
  H      2.520762    3.280525    1.959453
  H      0.606367    3.950740    3.569687
  H      0.451907    4.196468    1.823651
  Cu     1.244487    1.132688    1.179822

 Multiplicity           Mult            ....    1
 Number of Electrons    NEL             ....   86
 Basis Dimension        Dim             ....  347

ORBITAL ENERGIES
----------------

  NO   OCC          E(Eh)            E(eV)
   0   2.0000    -323.020688     -8789.8398
   1   2.0000     -38.808946     -1056.0451
   2   2.0000     -34.013920      -925.5658
   3   2.0000     -34.013819      -925.5631
   4   2.0000     -34.013528      -925.5551
   5   2.0000     -14.381387      -391.3374
   6   2.0000     -10.239032      -278.6182
   7   2.0000     -10.218415      -278.0572
   8   2.0000     -10.210482      -277.8413
   9   2.0000     -10.205761      -277.7129
  10   2.0000     -10.203039      -277.6388
  11   2.0000     -10.202480      -277.6236
  12   2.0000     -10.200539      -277.5708
  13   2.0000      -4.303035      -117.0915
  14   2.0000      -2.798284       -76.1452
  15   2.0000      -2.797999       -76.1374
  16   2.0000      -2.796725       -76.1027
  17   2.0000      -0.950115       -25.8539
  18   2.0000      -0.889013       -24.1913
  19   2.0000      -0.796922       -21.6853
  20   2.0000      -0.779115       -21.2008
  21   2.0000      -0.706497       -19.2248
  22   2.0000      -0.640580       -17.4311
  23   2.0000      -0.616267       -16.7695
  24   2.0000      -0.557738       -15.1768
  25   2.0000      -0.540776       -14.7153
  26   2.0000      -0.517541       -14.0830
  27   2.0000      -0.486024       -13.2254
  28   2.0000      -0.483233       -13.1494
  29   2.0000      -0.452869       -12.3232
  30   2.0000      -0.449712       -12.2373
  31   2.0000      -0.422165       -11.4877
  32   2.0000      -0.403790       -10.9877
  33   2.0000      -0.386566       -10.5190
  34   2.0000      -0.372693       -10.1415
  35   2.0000      -0.362819        -9.8728
  36   2.0000      -0.308708        -8.4004
  37   2.0000      -0.296975        -8.0811
  38   2.0000      -0.291860        -7.9419
  39   2.0000      -0.291251        -7.9253
  40   2.0000      -0.285895        -7.7796
  41   2.0000      -0.283079        -7.7030
  42   2.0000      -0.256675        -6.9845
  43   0.0000      -0.089527        -2.4362
  44   0.0000      -0.053904        -1.4668
  45   0.0000      -0.045035        -1.2255
  46   0.0000       0.014365         0.3909
  47   0.0000       0.026887         0.7316

MULLIKEN ATOMIC CHARGES
-----------------------
   0 C :   -0.106623
   1 C :   -0.239091
   2 C :    0.241421
   3 C :   -0.226227
   4 C :   -0.102347
   5 C :   -0.145271
   6 H :    0.151823
   7 H :    0.149383
   8 H :    0.151150
   9 H :    0.143357
  10 H :    0.149269
  11 C :   -0.153983
  12 N :   -0.432496
  13 H :    0.275493
  14 H :    0.276738
  15 H :    0.150976
  16 H :    0.155720
  17 Cu:    0.560708
Sum of atomic charges:    1.0000000

LOEWDIN ATOMIC CHARGES
----------------------
   0 C :   -0.113872
   1 C :   -0.109040
   2 C :   -0.143160
   3 C :   -0.097428
   4 C :   -0.118154
   5 C :   -0.126359
   6 H :    0.154790
   7 H :    0.152980
   8 H :    0.175054
   9 H :    0.156393
  10 H :    0.153652
  11 C :   -0.212182
  12 N :   -0.010636
  13 H :    0.195709
  14 H :    0.192609
  15 H :    0.142814
  16 H :    0.151835
  17 Cu:    0.454995

  Mayer bond orders larger than 0.100000
B(  0-C ,  1-C ) :   1.3732 B(  0-C ,  5-C ) :   1.3882 B(  0-C ,  6-H ) :   0.9696
B(  1-C ,  2-C ) :   1.2193 B(  1-C ,  8-H ) :   0.9654 B(  1-C , 17-Cu) :   0.1423
B(  2-C ,  3-C ) :   1.4024 B(  2-C , 11-C ) :   0.9300 B(  2-C , 12-N ) :  -0.1285
B(  3-C ,  4-C ) :   1.3865 B(  3-C ,  9-H ) :   0.9763 B(  4-C ,  5-C ) :   1.3894
B(  4-C , 10-H ) :   0.9718 B(  5-C ,  7-H ) :   0.9686 B( 11-C , 12-N ) :   0.9331
B( 11-C , 15-H ) :   0.9858 B( 11-C , 16-H ) :   0.9706 B( 12-N , 13-H ) :   0.9077
B( 12-N , 14-H ) :   0.9093 B( 12-N , 17-Cu) :   0.5622

Dispersion correction           -0.037659517
FINAL SINGLE POINT ENERGY     -1967.196234727613

DIPOLE MOMENT
-------------
                                X             Y             Z
Electronic contribution:     12.30574      -6.98406      -9.18963
Nuclear contribution   :    -10.19490       7.19575       8.81993
                        -----------------------------------------
Total Dipole Moment    :      2.11084       0.21169      -0.36969
                        -----------------------------------------
Magnitude (a.u.)       :      2.15340
Magnitude (Debye)      :      5.47351

Dispersion correction in the Hessian             ... done   (      0.4 sec)

VIBRATIONAL FREQUENCIES
-----------------------

Scaling factor for frequencies =  1.000000000  (already applied!)

   0:         0.00 cm**-1
   1:         0.00 cm**-1
   2:         0.00 cm**-1
   3:         0.00 cm**-1
   4:         0.00 cm**-1
   5:         0.00 cm**-1
   6:        43.32 cm**-1
   7:        70.57 cm**-1
   8:       103.93 cm**-1
   9:       150.58 cm**-1
  10:       297.27 cm**-1
  11:       347.68 cm**-1
  12:       413.00 cm**-1
  13:       424.12 cm**-1
  14:       509.82 cm**-1
  15:       531.31 cm**-1
  16:       628.64 cm**-1
  17:       635.82 cm**-1
  18:       727.65 cm**-1
  19:       775.31 cm**-1
  20:       819.16 cm**-1
  21:       862.24 cm**-1
  22:       924.51 cm**-1
  23:       937.85 cm**-1
  24:       978.42 cm**-1
  25:       988.87 cm**-1
  26:      1016.58 cm**-1
  27:      1021.93 cm**-1
  28:      1048.64 cm**-1
  29:      1072.65 cm**-1
  30:      1103.98 cm**-1
  31:      1158.35 cm**-1
  32:      1180.38 cm**-1
  33:      1195.06 cm**-1
  34:      1232.03 cm**-1
  35:      1309.40 cm**-1
  36:      1344.54 cm**-1
  37:      1363.42 cm**-1
  38:      1394.22 cm**-1
  39:      1483.96 cm**-1
  40:      1495.53 cm**-1
  41:      1526.49 cm**-1
  42:      1618.08 cm**-1
  43:      1621.16 cm**-1
  44:      1636.61 cm**-1
  45:      3066.60 cm**-1
  46:      3116.54 cm**-1
  47:      3129.59 cm**-1
  48:      3172.82 cm**-1
  49:      3181.46 cm**-1
  50:      3189.87 cm**-1
  51:      3199.56 cm**-1
  52:      3469.06 cm**-1
  53:      3533.10 cm**-1

IR SPECTRUM
-----------

 Mode   freq       eps      Int      T**2         TX        TY        TZ
       cm**-1   L/(mol*cm) km/mol    a.u.
----------------------------------------------------------------------------
  6:     43.32   0.000835    4.22  0.006016  (-0.070930  0.010880  0.029439)
  7:     70.57   0.000757    3.83  0.003349  ( 0.055322 -0.006433 -0.015706)
  8:    103.93   0.000681    3.44  0.002045  (-0.013591 -0.033522  0.027141)
  9:    150.58   0.002785   14.07  0.005771  ( 0.059416 -0.038678 -0.027292)
 10:    297.27   0.000445    2.25  0.000467  (-0.020884 -0.004565  0.003185)
 11:    347.68   0.000280    1.42  0.000252  (-0.002512  0.009581 -0.012394)
 12:    413.00   0.000627    3.17  0.000474  ( 0.018454 -0.010966  0.003630)
 13:    424.12   0.000322    1.62  0.000237  ( 0.013260 -0.002473  0.007393)
 14:    509.82   0.002333   11.79  0.001428  ( 0.032499 -0.014247 -0.012987)
 15:    531.31   0.008154   41.21  0.004789  ( 0.017787  0.037474 -0.055396)
 16:    628.64   0.006565   33.18  0.003259  (-0.012900 -0.048085  0.027938)
 17:    635.82   0.000047    0.24  0.000023  ( 0.001894 -0.001565  0.004134)
 18:    727.65   0.016816   84.98  0.007212  ( 0.057255 -0.062649 -0.002987)
 19:    775.31   0.008784   44.39  0.003536  ( 0.049172 -0.031605 -0.010898)
 20:    819.16   0.004130   20.87  0.001573  (-0.036237  0.008120  0.013940)
 21:    862.24   0.000465    2.35  0.000168  ( 0.005899  0.002784 -0.011212)
 22:    924.51   0.007452   37.66  0.002515  (-0.036758  0.030109  0.016050)
 23:    937.85   0.002742   13.86  0.000912  (-0.025958  0.006889  0.013826)
 24:    978.42   0.003646   18.43  0.001163  ( 0.031358 -0.009268 -0.009680)
 25:    988.87   0.000178    0.90  0.000056  (-0.005325 -0.000364  0.005254)
 26:   1016.58   0.000196    0.99  0.000060  ( 0.005073 -0.005071 -0.002968)
 27:   1021.93   0.000388    1.96  0.000118  ( 0.008438 -0.002726 -0.006302)
 28:   1048.64   0.001106    5.59  0.000329  (-0.010286 -0.014661 -0.002899)
 29:   1072.65   0.017135   86.59  0.004985  ( 0.021337 -0.048947 -0.046193)
 30:   1103.98   0.003055   15.44  0.000864  ( 0.009003 -0.027912 -0.001868)
 31:   1158.35   0.001063    5.37  0.000286  (-0.001863  0.006082  0.015685)
 32:   1180.38   0.000011    0.05  0.000003  ( 0.000251 -0.000941 -0.001370)
 33:   1195.06   0.000042    0.21  0.000011  ( 0.001086  0.003116 -0.000289)
 34:   1232.03   0.002905   14.68  0.000736  ( 0.017043  0.020210  0.006071)
 35:   1309.40   0.000552    2.79  0.000132  ( 0.007841  0.005329  0.006456)
 36:   1344.54   0.000146    0.74  0.000034  (-0.003391  0.004478 -0.001539)
 37:   1363.42   0.000005    0.03  0.000001  ( 0.000674 -0.000866 -0.000232)
 38:   1394.22   0.003561   18.00  0.000797  (-0.025839 -0.011375 -0.000338)
 39:   1483.96   0.001731    8.75  0.000364  (-0.003519  0.003114 -0.018489)
 40:   1495.53   0.000905    4.57  0.000189  ( 0.001341  0.013568 -0.001729)
 41:   1526.49   0.002071   10.47  0.000423  ( 0.011786  0.016054  0.005179)
 42:   1618.08   0.001186    5.99  0.000229  ( 0.012636  0.002722 -0.007849)
 43:   1621.16   0.008797   44.46  0.001693  ( 0.034688 -0.001933  0.022053)
 44:   1636.61   0.001611    8.14  0.000307  ( 0.017226  0.001905 -0.002604)
 45:   3066.60   0.005484   27.71  0.000558  ( 0.000058 -0.022493 -0.007217)
 46:   3116.54   0.001858    9.39  0.000186  ( 0.000032  0.001568 -0.013548)
 47:   3129.59   0.000989    5.00  0.000099  ( 0.007624  0.004043 -0.004915)
 48:   3172.82   0.000582    2.94  0.000057  (-0.003885 -0.004727 -0.004454)
 49:   3181.46   0.000477    2.41  0.000047  (-0.004290 -0.004936 -0.002003)
 50:   3189.87   0.002625   13.26  0.000257  (-0.001443 -0.000800 -0.015939)
 51:   3199.56   0.001780    9.00  0.000174  ( 0.010196  0.008204 -0.001540)
 52:   3469.06   0.005877   29.70  0.000529  (-0.020516 -0.001736 -0.010237)
 53:   3533.10   0.010998   55.58  0.000971  (-0.007920 -0.017989  0.024187)

--------------------------
THERMOCHEMISTRY AT 298.15K
--------------------------

Temperature         ... 298.15 K
Pressure            ... 1.00 atm
Total Mass          ... 170.71 AMU

Throughout the following assumptions are being made:
  (1) The electronic state is orbitally nondegenerate
  (2) There are no thermally accessible electronically excited states
  (3) Hindered rotations indicated by low frequency modes are not
      treated as such but are treated as vibrations and this may
      cause some error
  (4) All equations used are the standard statistical mechanics
      equations for an ideal gas
  (5) All vibrations are strictly harmonic

freq.      43.32  E(vib)   ...       0.53
freq.      70.57  E(vib)   ...       0.50
freq.     103.93  E(vib)   ...       0.46
freq.     150.58  E(vib)   ...       0.40
freq.     297.27  E(vib)   ...       0.27
freq.     347.68  E(vib)   ...       0.23
freq.     413.00  E(vib)   ...       0.19
freq.     424.12  E(vib)   ...       0.18
freq.     509.82  E(vib)   ...       0.14
freq.     531.31  E(vib)   ...       0.13
freq.     628.64  E(vib)   ...       0.09
freq.     635.82  E(vib)   ...       0.09
freq.     727.65  E(vib)   ...       0.06
freq.     775.31  E(vib)   ...       0.05
freq.     819.16  E(vib)   ...       0.05
freq.     862.24  E(vib)   ...       0.04
freq.     924.51  E(vib)   ...       0.03
freq.     937.85  E(vib)   ...       0.03
freq.     978.42  E(vib)   ...       0.03
freq.     988.87  E(vib)   ...       0.02
freq.    1016.58  E(vib)   ...       0.02
freq.    1021.93  E(vib)   ...       0.02
freq.    1048.64  E(vib)   ...       0.02
freq.    1072.65  E(vib)   ...       0.02
freq.    1103.98  E(vib)   ...       0.02
freq.    1158.35  E(vib)   ...       0.01
freq.    1180.38  E(vib)   ...       0.01
freq.    1195.06  E(vib)   ...       0.01
freq.    1232.03  E(vib)   ...       0.01
freq.    1309.40  E(vib)   ...       0.01
freq.    1344.54  E(vib)   ...       0.01
freq.    1363.42  E(vib)   ...       0.01
freq.    1394.22  E(vib)   ...       0.00
freq.    1483.96  E(vib)   ...       0.00
freq.    1495.53  E(vib)   ...       0.00
freq.    1526.49  E(vib)   ...       0.00
freq.    1618.08  E(vib)   ...       0.00
freq.    1621.16  E(vib)   ...       0.00
freq.    1636.61  E(vib)   ...       0.00
freq.    3066.60  E(vib)   ...       0.00
freq.    3116.54  E(vib)   ...       0.00
freq.    3129.59  E(vib)   ...       0.00
freq.    3172.82  E(vib)   ...       0.00
freq.    3181.46  E(vib)   ...       0.00
freq.    3189.87  E(vib)   ...       0.00
freq.    3199.56  E(vib)   ...       0.00
freq.    3469.06  E(vib)   ...       0.00
freq.    3533.10  E(vib)   ...       0.00

------------
INNER ENERGY
------------

The inner energy is: U= E(el) + E(ZPE) + E(vib) + E(rot) + E(trans)
    E(el)   - is the total energy from the electronic structure calculation
              = E(kin-el) + E(nuc-el) + E(el-el) + E(nuc-nuc)
    E(ZPE)  - the the zero temperature vibrational energy from the frequency calculation
    E(vib)  - the the finite temperature correction to E(ZPE) due to population
              of excited vibrational states
    E(rot)  - is the rotational thermal energy
    E(trans)- is the translational thermal energy

Summary of contributions to the inner energy U:
Electronic energy                ...  -1967.19623473 Eh
Zero point energy                ...      0.14819865 Eh      93.00 kcal/mol
Thermal vibrational correction   ...      0.00586557 Eh       3.68 kcal/mol
Thermal rotational correction    ...      0.00141627 Eh       0.89 kcal/mol
Thermal translational correction ...      0.00141627 Eh       0.89 kcal/mol
-----------------------------------------------------------------------
Total thermal energy                  -1967.03933796 Eh

Summary of corrections to the electronic energy:
(perhaps to be used in another calculation)
Total thermal correction                  0.00869811 Eh       5.46 kcal/mol
Non-thermal (ZPE) correction              0.14819865 Eh      93.00 kcal/mol
-----------------------------------------------------------------------
Total correction                          0.15689677 Eh      98.45 kcal/mol

--------
ENTHALPY
--------

The enthalpy is H = U + kB*T
                kB is Boltzmann's constant
Total free energy                 ...  -1967.03933796 Eh
Thermal Enthalpy correction       ...      0.00094421 Eh       0.59 kcal/mol
-----------------------------------------------------------------------
Total Enthalpy                    ...  -1967.03839375 Eh

Note: Only C1 symmetry has been detected, increase convergence thresholds
      if your molecule has a higher symmetry. Symmetry factor of 1.0 is
      used for the rotational entropy correction.

Note: Rotational entropy computed according to Herzberg
Infrared and Raman Spectra, Chapter V,1, Van Nostrand Reinhold, 1945
Point Group:  C1, Symmetry Number:   1
Rotational constants in cm-1:     0.070428     0.032697     0.026410

Vibrational entropy computed according to the QRRHO of S. Grimme
Chem.Eur.J. 2012 18 9955

-------
ENTROPY
-------

The entropy contributions are T*S = T*(S(el)+S(vib)+S(rot)+S(trans))
     S(el)   - electronic entropy
     S(vib)  - vibrational entropy
     S(rot)  - rotational entropy
     S(trans)- translational entropy
The entropies will be listed as multiplied by the temperature to get
units of energy

Electronic entropy                ...      0.00000000 Eh      0.00 kcal/mol
Vibrational entropy               ...      0.01012236 Eh      6.35 kcal/mol
Rotational entropy                ...      0.01409369 Eh      8.84 kcal/mol
Translational entropy             ...      0.01962863 Eh     12.32 kcal/mol
-----------------------------------------------------------------------
Final entropy term                ...      0.04384467 Eh     27.51 kcal/mol

In case the symmetry of your molecule has not been determined correctly
or in case you have a reason to use a different symmetry number we print
out the resulting rotational entropy values for sn=1,12 :
 --------------------------------------------------------
|  sn= 1 | S(rot)=       0.01409369 Eh      8.84 kcal/mol|
|  sn= 2 | S(rot)=       0.01343923 Eh      8.43 kcal/mol|
|  sn= 3 | S(rot)=       0.01305640 Eh      8.19 kcal/mol|
|  sn= 4 | S(rot)=       0.01278478 Eh      8.02 kcal/mol|
|  sn= 5 | S(rot)=       0.01257409 Eh      7.89 kcal/mol|
|  sn= 6 | S(rot)=       0.01240195 Eh      7.78 kcal/mol|
|  sn= 7 | S(rot)=       0.01225640 Eh      7.69 kcal/mol|
|  sn= 8 | S(rot)=       0.01213032 Eh      7.61 kcal/mol|
|  sn= 9 | S(rot)=       0.01201911 Eh      7.54 kcal/mol|
|  sn=10 | S(rot)=       0.01191963 Eh      7.48 kcal/mol|
|  sn=11 | S(rot)=       0.01182964 Eh      7.42 kcal/mol|
|  sn=12 | S(rot)=       0.01174749 Eh      7.37 kcal/mol|
 --------------------------------------------------------

                             ****ORCA TERMINATED NORMALLY****
TOTAL RUN TIME: 0 days 5 hours 11 minutes 37 seconds 612 msec
