                         Program Version 5.0.3 -  RELEASE  -
|  1> !B3LYP DEF2-TZVP D3BJ
|  2> !OPT FREQ TIGHTOPT TightSCF defgrid2
|  3> %SCF
|  4>     MaxIter 2000       # Here setting MaxIter to a very high number. Intended for systems that require sometimes 1000 iterations before converging (very rare).
|  5>     DIISMaxEq 5        # Default value is 5. A value of 15-40 necessary for difficult systems.
|  6>     directresetfreq 15 # Default value is 15. A value of 1 (very expensive) is sometimes required. A value between 1 and 15 may be more cost-effective.
|  7> END
|  8> %CPCM EPSILON 6.02 REFRAC 1.3723 END
|  9> %PAL NPROCS 32 END
| 10> %maxcore 2000 # This indicates you want ORCA to use only 2GB per core maximum, so ORCA will use only 2GB*32=64GB of memory in total.
| 11> %GEOM
| 12>     Constraints
| 13>         {C 0 C}
| 14>         {C 1 C}
| 15>         {C 2 C}
| 16>         {C 3 C}
| 17>         {C 4 C}
| 18>         {C 5 C}
| 19>     END
| 20> END
| 21> * xyzfile 1 1 reactant.xyz
| 22>
| 23>                          ****END OF INPUT****
 Total Charge           Charge          ....    1
 Multiplicity           Mult            ....    1
 Number of Electrons    NEL             ....   86
Dispersion correction           -0.034022771
FINAL SINGLE POINT ENERGY     -1967.106470973031
Dispersion correction            ... done
Dispersion correction           -0.033747439
FINAL SINGLE POINT ENERGY     -1967.132533106104
Dispersion correction            ... done
Dispersion correction           -0.033692542
FINAL SINGLE POINT ENERGY     -1967.147533788500
Dispersion correction            ... done
FINAL SINGLE POINT ENERGY     -1967.158720572779
FINAL SINGLE POINT ENERGY     -1967.167489551437
FINAL SINGLE POINT ENERGY     -1967.174061403586
FINAL SINGLE POINT ENERGY     -1967.178514325897
FINAL SINGLE POINT ENERGY     -1967.181338893719
FINAL SINGLE POINT ENERGY     -1967.183303494927
FINAL SINGLE POINT ENERGY     -1967.184830329585
FINAL SINGLE POINT ENERGY     -1967.195586878284
FINAL SINGLE POINT ENERGY     -1967.195612944265
FINAL SINGLE POINT ENERGY     -1967.195629260560
FINAL SINGLE POINT ENERGY     -1967.195632415434
FINAL SINGLE POINT ENERGY     -1967.195633354457
FINAL SINGLE POINT ENERGY     -1967.195633333893
FINAL SINGLE POINT ENERGY     -1967.195633272680
Dispersion correction           -0.037503702
FINAL SINGLE POINT ENERGY     -1967.195633632494
Dispersion correction            ... done
Dispersion correction           -0.037504794
FINAL SINGLE POINT ENERGY     -1967.195634250023
Dispersion correction            ... done
                    ***********************HURRAY********************

CARTESIAN COORDINATES (ANGSTROEM)
---------------------------------
  C     -2.990957    1.813887    1.613458
  C     -1.907360    2.667010    1.510144
  C     -0.730233    2.403506    2.234471
  C     -0.659696    1.266548    3.061268
  C     -1.747098    0.422571    3.158609
  C     -2.911274    0.692362    2.434639
  H     -3.897028    2.013504    1.055899
  H     -3.756232    0.020458    2.512896
  H     -1.954034    3.545252    0.877885
  H      0.271962    1.022571    3.564974
  H     -1.693464   -0.463306    3.778569
  C      0.413911    3.382019    2.234139
  N      0.322954    4.234415    3.461623
  H      0.403154    4.004106    1.338735
  H      1.366370    2.855504    2.279341
  H      1.225504    4.648387    3.678242
  H     -0.315981    5.008455    3.295034
  Cu    -0.472024    3.093290    4.893520

 Multiplicity           Mult            ....    1
 Number of Electrons    NEL             ....   86
 Basis Dimension        Dim             ....  347

ORBITAL ENERGIES
----------------

  NO   OCC          E(Eh)            E(eV)
   0   2.0000    -323.021601     -8789.8646
   1   2.0000     -38.809901     -1056.0711
   2   2.0000     -34.014865      -925.5915
   3   2.0000     -34.014762      -925.5887
   4   2.0000     -34.014497      -925.5815
   5   2.0000     -14.382561      -391.3694
   6   2.0000     -10.238469      -278.6029
   7   2.0000     -10.218415      -278.0572
   8   2.0000     -10.208662      -277.7918
   9   2.0000     -10.203479      -277.6508
  10   2.0000     -10.202808      -277.6325
  11   2.0000     -10.201334      -277.5924
  12   2.0000     -10.199971      -277.5553
  13   2.0000      -4.303926      -117.1158
  14   2.0000      -2.799100       -76.1674
  15   2.0000      -2.798837       -76.1602
  16   2.0000      -2.797690       -76.1290
  17   2.0000      -0.950607       -25.8673
  18   2.0000      -0.887781       -24.1577
  19   2.0000      -0.794265       -21.6131
  20   2.0000      -0.780788       -21.2463
  21   2.0000      -0.705214       -19.1899
  22   2.0000      -0.638398       -17.3717
  23   2.0000      -0.616209       -16.7679
  24   2.0000      -0.558106       -15.1868
  25   2.0000      -0.539673       -14.6852
  26   2.0000      -0.517212       -14.0740
  27   2.0000      -0.485678       -13.2160
  28   2.0000      -0.482174       -13.1206
  29   2.0000      -0.455204       -12.3867
  30   2.0000      -0.447086       -12.1658
  31   2.0000      -0.422487       -11.4965
  32   2.0000      -0.401866       -10.9353
  33   2.0000      -0.385982       -10.5031
  34   2.0000      -0.371467       -10.1081
  35   2.0000      -0.363443        -9.8898
  36   2.0000      -0.307769        -8.3748
  37   2.0000      -0.295596        -8.0436
  38   2.0000      -0.292574        -7.9614
  39   2.0000      -0.292102        -7.9485
  40   2.0000      -0.286167        -7.7870
  41   2.0000      -0.283542        -7.7156
  42   2.0000      -0.258052        -7.0220
  43   0.0000      -0.090548        -2.4639
  44   0.0000      -0.053162        -1.4466
  45   0.0000      -0.044136        -1.2010
  46   0.0000       0.014969         0.4073
  47   0.0000       0.025907         0.7050

MULLIKEN ATOMIC CHARGES
-----------------------
   0 C :   -0.106813
   1 C :   -0.222482
   2 C :    0.218312
   3 C :   -0.235976
   4 C :   -0.115284
   5 C :   -0.140539
   6 H :    0.149094
   7 H :    0.148401
   8 H :    0.143182
   9 H :    0.153965
  10 H :    0.149809
  11 C :   -0.137996
  12 N :   -0.434040
  13 H :    0.149412
  14 H :    0.154353
  15 H :    0.276669
  16 H :    0.275564
  17 Cu:    0.574369
Sum of atomic charges:    1.0000000

LOEWDIN ATOMIC CHARGES
----------------------
   0 C :   -0.123875
   1 C :   -0.098723
   2 C :   -0.135670
   3 C :   -0.112208
   4 C :   -0.119492
   5 C :   -0.123746
   6 H :    0.153938
   7 H :    0.152278
   8 H :    0.155549
   9 H :    0.175092
  10 H :    0.154731
  11 C :   -0.215849
  12 N :   -0.011480
  13 H :    0.142407
  14 H :    0.151720
  15 H :    0.193220
  16 H :    0.196273
  17 Cu:    0.465835

  Mayer bond orders larger than 0.100000
B(  0-C ,  1-C ) :   1.3992 B(  0-C ,  5-C ) :   1.3865 B(  0-C ,  6-H ) :   0.9720
B(  1-C ,  2-C ) :   1.3882 B(  1-C ,  8-H ) :   0.9754 B(  2-C ,  3-C ) :   1.2445
B(  2-C , 11-C ) :   0.9307 B(  2-C , 12-N ) :  -0.1094 B(  3-C ,  4-C ) :   1.3948
B(  3-C ,  9-H ) :   0.9580 B(  3-C , 17-Cu) :   0.1085 B(  4-C ,  5-C ) :   1.3872
B(  4-C , 10-H ) :   0.9697 B(  5-C ,  7-H ) :   0.9686 B( 11-C , 12-N ) :   0.9176
B( 11-C , 13-H ) :   0.9830 B( 11-C , 14-H ) :   0.9708 B( 12-N , 15-H ) :   0.9089
B( 12-N , 16-H ) :   0.9074 B( 12-N , 17-Cu) :   0.5758

Dispersion correction           -0.037504693
FINAL SINGLE POINT ENERGY     -1967.195634597079

DIPOLE MOMENT
-------------
                                X             Y             Z
Electronic contribution:      3.41571       4.51270      16.62568
Nuclear contribution   :     -2.31918      -2.99769     -15.39817
                        -----------------------------------------
Total Dipole Moment    :      1.09652       1.51501       1.22750
                        -----------------------------------------
Magnitude (a.u.)       :      2.23705
Magnitude (Debye)      :      5.68612

Dispersion correction in the Hessian             ... done   (      0.4 sec)

VIBRATIONAL FREQUENCIES
-----------------------

Scaling factor for frequencies =  1.000000000  (already applied!)

   0:         0.00 cm**-1
   1:         0.00 cm**-1
   2:         0.00 cm**-1
   3:         0.00 cm**-1
   4:         0.00 cm**-1
   5:         0.00 cm**-1
   6:        44.25 cm**-1
   7:        83.78 cm**-1
   8:       110.44 cm**-1
   9:       146.81 cm**-1
  10:       301.23 cm**-1
  11:       349.14 cm**-1
  12:       410.29 cm**-1
  13:       423.35 cm**-1
  14:       510.42 cm**-1
  15:       543.62 cm**-1
  16:       631.44 cm**-1
  17:       633.58 cm**-1
  18:       727.19 cm**-1
  19:       773.77 cm**-1
  20:       816.82 cm**-1
  21:       865.33 cm**-1
  22:       929.65 cm**-1
  23:       938.75 cm**-1
  24:       977.50 cm**-1
  25:       990.78 cm**-1
  26:      1014.47 cm**-1
  27:      1020.26 cm**-1
  28:      1038.58 cm**-1
  29:      1078.55 cm**-1
  30:      1113.83 cm**-1
  31:      1158.19 cm**-1
  32:      1181.26 cm**-1
  33:      1195.16 cm**-1
  34:      1237.38 cm**-1
  35:      1302.72 cm**-1
  36:      1342.56 cm**-1
  37:      1363.08 cm**-1
  38:      1398.53 cm**-1
  39:      1496.56 cm**-1
  40:      1497.28 cm**-1
  41:      1517.26 cm**-1
  42:      1600.48 cm**-1
  43:      1620.12 cm**-1
  44:      1652.02 cm**-1
  45:      3064.96 cm**-1
  46:      3115.29 cm**-1
  47:      3130.51 cm**-1
  48:      3172.47 cm**-1
  49:      3179.52 cm**-1
  50:      3188.18 cm**-1
  51:      3197.74 cm**-1
  52:      3468.33 cm**-1
  53:      3530.05 cm**-1

IR SPECTRUM
-----------

 Mode   freq       eps      Int      T**2         TX        TY        TZ
       cm**-1   L/(mol*cm) km/mol    a.u.
----------------------------------------------------------------------------
  6:     44.25   0.001024    5.17  0.007221  ( 0.036730  0.042123  0.064012)
  7:     83.78   0.000350    1.77  0.001305  ( 0.022466  0.021044  0.018893)
  8:    110.44   0.000593    3.00  0.001675  (-0.036971  0.013453  0.011284)
  9:    146.81   0.003236   16.35  0.006879  (-0.007488 -0.034724 -0.074948)
 10:    301.23   0.000446    2.26  0.000462  (-0.011520 -0.014737 -0.010607)
 11:    349.14   0.000342    1.73  0.000306  (-0.014544  0.009556 -0.001765)
 12:    410.29   0.000283    1.43  0.000215  (-0.003088  0.009211  0.010987)
 13:    423.35   0.000608    3.07  0.000448  (-0.002326  0.019731  0.007289)
 14:    510.42   0.002284   11.54  0.001397  (-0.000521  0.020178  0.031450)
 15:    543.62   0.007276   36.77  0.004177  (-0.057860  0.012080 -0.026139)
 16:    631.44   0.007879   39.82  0.003894  ( 0.062296 -0.002260  0.002802)
 17:    633.58   0.000297    1.50  0.000146  ( 0.011179 -0.004613  0.000171)
 18:    727.19   0.017511   88.50  0.007515  (-0.033925  0.044679  0.066088)
 19:    773.77   0.007660   38.71  0.003089  (-0.005947  0.030618  0.046003)
 20:    816.82   0.004624   23.37  0.001767  (-0.011810 -0.022026 -0.033794)
 21:    865.33   0.000296    1.50  0.000107  ( 0.006754 -0.001659  0.007646)
 22:    929.65   0.008312   42.01  0.002790  ( 0.004581 -0.021358 -0.048095)
 23:    938.75   0.002029   10.25  0.000674  (-0.009069 -0.012113 -0.021107)
 24:    977.50   0.003348   16.92  0.001069  ( 0.007866  0.020085  0.024564)
 25:    990.78   0.000221    1.12  0.000070  ( 0.002997  0.001687  0.007608)
 26:   1014.47   0.000340    1.72  0.000105  ( 0.001616  0.004217  0.009177)
 27:   1020.26   0.000281    1.42  0.000086  (-0.005063 -0.004667 -0.006203)
 28:   1038.58   0.000997    5.04  0.000300  (-0.011903 -0.010362  0.007116)
 29:   1078.55   0.017368   87.77  0.005025  ( 0.009480  0.008880 -0.069689)
 30:   1113.83   0.002618   13.23  0.000734  ( 0.018254 -0.007396 -0.018591)
 31:   1158.19   0.001505    7.61  0.000406  ( 0.004224 -0.008324  0.017846)
 32:   1181.26   0.000086    0.44  0.000023  ( 0.000690  0.003172 -0.003508)
 33:   1195.16   0.000057    0.29  0.000015  ( 0.000005 -0.003314  0.001964)
 34:   1237.38   0.002692   13.60  0.000679  (-0.018721 -0.016956  0.006393)
 35:   1302.72   0.000857    4.33  0.000205  (-0.004624 -0.012299  0.005720)
 36:   1342.56   0.000155    0.79  0.000036  (-0.001938  0.002884  0.004902)
 37:   1363.08   0.000007    0.04  0.000002  (-0.000277 -0.000738  0.001011)
 38:   1398.53   0.003856   19.49  0.000860  (-0.018854 -0.021427 -0.006764)
 39:   1496.56   0.001552    7.84  0.000324  ( 0.011807 -0.013009  0.003861)
 40:   1497.28   0.000985    4.98  0.000205  (-0.008907 -0.007291  0.008534)
 41:   1517.26   0.001808    9.14  0.000372  ( 0.015410  0.010756 -0.004335)
 42:   1600.48   0.001400    7.07  0.000273  (-0.011139  0.005234 -0.011020)
 43:   1620.12   0.010228   51.69  0.001970  ( 0.002701  0.043796  0.006690)
 44:   1652.02   0.000421    2.13  0.000080  ( 0.003231  0.006593  0.005067)
 45:   3064.96   0.005718   28.89  0.000582  (-0.015053 -0.004816  0.018231)
 46:   3115.29   0.001916    9.69  0.000192  (-0.008698  0.007814 -0.007434)
 47:   3130.51   0.001385    7.00  0.000138  ( 0.009444  0.004026  0.005713)
 48:   3172.47   0.000514    2.60  0.000051  (-0.002663 -0.005534  0.003584)
 49:   3179.52   0.000498    2.52  0.000049  ( 0.006017  0.003533 -0.000447)
 50:   3188.18   0.002921   14.76  0.000286  (-0.003603  0.012886 -0.010340)
 51:   3197.74   0.001859    9.39  0.000181  ( 0.011689  0.006126  0.002690)
 52:   3468.33   0.005718   28.90  0.000515  ( 0.004156  0.022195  0.002149)
 53:   3530.05   0.010952   55.35  0.000968  ( 0.029007 -0.007644  0.008269)

--------------------------
THERMOCHEMISTRY AT 298.15K
--------------------------

Temperature         ... 298.15 K
Pressure            ... 1.00 atm
Total Mass          ... 170.71 AMU

Throughout the following assumptions are being made:
  (1) The electronic state is orbitally nondegenerate
  (2) There are no thermally accessible electronically excited states
  (3) Hindered rotations indicated by low frequency modes are not
      treated as such but are treated as vibrations and this may
      cause some error
  (4) All equations used are the standard statistical mechanics
      equations for an ideal gas
  (5) All vibrations are strictly harmonic

freq.      44.25  E(vib)   ...       0.53
freq.      83.78  E(vib)   ...       0.48
freq.     110.44  E(vib)   ...       0.45
freq.     146.81  E(vib)   ...       0.41
freq.     301.23  E(vib)   ...       0.26
freq.     349.14  E(vib)   ...       0.23
freq.     410.29  E(vib)   ...       0.19
freq.     423.35  E(vib)   ...       0.18
freq.     510.42  E(vib)   ...       0.14
freq.     543.62  E(vib)   ...       0.12
freq.     631.44  E(vib)   ...       0.09
freq.     633.58  E(vib)   ...       0.09
freq.     727.19  E(vib)   ...       0.06
freq.     773.77  E(vib)   ...       0.05
freq.     816.82  E(vib)   ...       0.05
freq.     865.33  E(vib)   ...       0.04
freq.     929.65  E(vib)   ...       0.03
freq.     938.75  E(vib)   ...       0.03
freq.     977.50  E(vib)   ...       0.03
freq.     990.78  E(vib)   ...       0.02
freq.    1014.47  E(vib)   ...       0.02
freq.    1020.26  E(vib)   ...       0.02
freq.    1038.58  E(vib)   ...       0.02
freq.    1078.55  E(vib)   ...       0.02
freq.    1113.83  E(vib)   ...       0.01
freq.    1158.19  E(vib)   ...       0.01
freq.    1181.26  E(vib)   ...       0.01
freq.    1195.16  E(vib)   ...       0.01
freq.    1237.38  E(vib)   ...       0.01
freq.    1302.72  E(vib)   ...       0.01
freq.    1342.56  E(vib)   ...       0.01
freq.    1363.08  E(vib)   ...       0.01
freq.    1398.53  E(vib)   ...       0.00
freq.    1496.56  E(vib)   ...       0.00
freq.    1497.28  E(vib)   ...       0.00
freq.    1517.26  E(vib)   ...       0.00
freq.    1600.48  E(vib)   ...       0.00
freq.    1620.12  E(vib)   ...       0.00
freq.    1652.02  E(vib)   ...       0.00
freq.    3064.96  E(vib)   ...       0.00
freq.    3115.29  E(vib)   ...       0.00
freq.    3130.51  E(vib)   ...       0.00
freq.    3172.47  E(vib)   ...       0.00
freq.    3179.52  E(vib)   ...       0.00
freq.    3188.18  E(vib)   ...       0.00
freq.    3197.74  E(vib)   ...       0.00
freq.    3468.33  E(vib)   ...       0.00
freq.    3530.05  E(vib)   ...       0.00

------------
INNER ENERGY
------------

The inner energy is: U= E(el) + E(ZPE) + E(vib) + E(rot) + E(trans)
    E(el)   - is the total energy from the electronic structure calculation
              = E(kin-el) + E(nuc-el) + E(el-el) + E(nuc-nuc)
    E(ZPE)  - the the zero temperature vibrational energy from the frequency calculation
    E(vib)  - the the finite temperature correction to E(ZPE) due to population
              of excited vibrational states
    E(rot)  - is the rotational thermal energy
    E(trans)- is the translational thermal energy

Summary of contributions to the inner energy U:
Electronic energy                ...  -1967.19563460 Eh
Zero point energy                ...      0.14827102 Eh      93.04 kcal/mol
Thermal vibrational correction   ...      0.00581859 Eh       3.65 kcal/mol
Thermal rotational correction    ...      0.00141627 Eh       0.89 kcal/mol
Thermal translational correction ...      0.00141627 Eh       0.89 kcal/mol
-----------------------------------------------------------------------
Total thermal energy                  -1967.03871245 Eh

Summary of corrections to the electronic energy:
(perhaps to be used in another calculation)
Total thermal correction                  0.00865113 Eh       5.43 kcal/mol
Non-thermal (ZPE) correction              0.14827102 Eh      93.04 kcal/mol
-----------------------------------------------------------------------
Total correction                          0.15692215 Eh      98.47 kcal/mol

--------
ENTHALPY
--------

The enthalpy is H = U + kB*T
                kB is Boltzmann's constant
Total free energy                 ...  -1967.03871245 Eh
Thermal Enthalpy correction       ...      0.00094421 Eh       0.59 kcal/mol
-----------------------------------------------------------------------
Total Enthalpy                    ...  -1967.03776824 Eh

Note: Only C1 symmetry has been detected, increase convergence thresholds
      if your molecule has a higher symmetry. Symmetry factor of 1.0 is
      used for the rotational entropy correction.

Note: Rotational entropy computed according to Herzberg
Infrared and Raman Spectra, Chapter V,1, Van Nostrand Reinhold, 1945
Point Group:  C1, Symmetry Number:   1
Rotational constants in cm-1:     0.071022     0.031440     0.025535

Vibrational entropy computed according to the QRRHO of S. Grimme
Chem.Eur.J. 2012 18 9955

-------
ENTROPY
-------

The entropy contributions are T*S = T*(S(el)+S(vib)+S(rot)+S(trans))
     S(el)   - electronic entropy
     S(vib)  - vibrational entropy
     S(rot)  - rotational entropy
     S(trans)- translational entropy
The entropies will be listed as multiplied by the temperature to get
units of energy

Electronic entropy                ...      0.00000000 Eh      0.00 kcal/mol
Vibrational entropy               ...      0.01003292 Eh      6.30 kcal/mol
Rotational entropy                ...      0.01412415 Eh      8.86 kcal/mol
Translational entropy             ...      0.01962863 Eh     12.32 kcal/mol
-----------------------------------------------------------------------
Final entropy term                ...      0.04378570 Eh     27.48 kcal/mol

In case the symmetry of your molecule has not been determined correctly
or in case you have a reason to use a different symmetry number we print
out the resulting rotational entropy values for sn=1,12 :
 --------------------------------------------------------
|  sn= 1 | S(rot)=       0.01412415 Eh      8.86 kcal/mol|
|  sn= 2 | S(rot)=       0.01346970 Eh      8.45 kcal/mol|
|  sn= 3 | S(rot)=       0.01308687 Eh      8.21 kcal/mol|
|  sn= 4 | S(rot)=       0.01281524 Eh      8.04 kcal/mol|
|  sn= 5 | S(rot)=       0.01260455 Eh      7.91 kcal/mol|
|  sn= 6 | S(rot)=       0.01243241 Eh      7.80 kcal/mol|
|  sn= 7 | S(rot)=       0.01228686 Eh      7.71 kcal/mol|
|  sn= 8 | S(rot)=       0.01216079 Eh      7.63 kcal/mol|
|  sn= 9 | S(rot)=       0.01204958 Eh      7.56 kcal/mol|
|  sn=10 | S(rot)=       0.01195010 Eh      7.50 kcal/mol|
|  sn=11 | S(rot)=       0.01186011 Eh      7.44 kcal/mol|
|  sn=12 | S(rot)=       0.01177795 Eh      7.39 kcal/mol|
 --------------------------------------------------------

                             ****ORCA TERMINATED NORMALLY****
TOTAL RUN TIME: 0 days 5 hours 15 minutes 14 seconds 53 msec
