                         Program Version 5.0.3 -  RELEASE  -
|  1> !B3LYP DEF2-TZVP D3BJ
|  2> !NEB-TS FREQ TightOPT TightSCF defgrid2
|  3> %SCF
|  4>     MaxIter 2000       # Here setting MaxIter to a very high number. Intended for systems that require sometimes 1000 iterations before converging (very rare).
|  5>     DIISMaxEq 5        # Default value is 5. A value of 15-40 necessary for difficult systems.
|  6>     directresetfreq 15 # Default value is 15. A value of 1 (very expensive) is sometimes required. A value between 1 and 15 may be more cost-effective.
|  7> END
|  8> %CPCM EPSILON 6.02 REFRAC 1.3723 END
|  9> %PAL NPROCS 32 END
| 10> %maxcore 2000 # This indicates you want ORCA to use only 2GB per core maximum, so ORCA will use only 2GB*32=64GB of memory in total.
| 11> %NEB
| 12>     NEB_END_XYZFILE "product_opt.xyz"
| 13>     Nimages 100
| 14>     Interpolation IDPP
| 15>     Opt_Method LBFGS
| 16> END
| 17> * XYZfile 1 1 reactant_opt_unconstrained.xyz
| 18>
| 19>                          ****END OF INPUT****
 Total Charge           Charge          ....    1
 Multiplicity           Mult            ....    1
 Number of Electrons    NEL             ....   86
Dispersion correction           -0.035982924
FINAL SINGLE POINT ENERGY     -1967.119905330116
Dispersion correction            ... done
Dispersion correction           -0.035989029
FINAL SINGLE POINT ENERGY     -1967.120206486095
Dispersion correction            ... done
Dispersion correction           -0.035975135
FINAL SINGLE POINT ENERGY     -1967.120509236065
Dispersion correction            ... done
FINAL SINGLE POINT ENERGY     -1967.120872485467
FINAL SINGLE POINT ENERGY     -1967.121067867698
FINAL SINGLE POINT ENERGY     -1967.121307397482
FINAL SINGLE POINT ENERGY     -1967.121584221267
FINAL SINGLE POINT ENERGY     -1967.121836051567
FINAL SINGLE POINT ENERGY     -1967.121961873537
FINAL SINGLE POINT ENERGY     -1967.121987147572
FINAL SINGLE POINT ENERGY     -1967.122023868556
FINAL SINGLE POINT ENERGY     -1967.122024167963
FINAL SINGLE POINT ENERGY     -1967.122024444649
FINAL SINGLE POINT ENERGY     -1967.122024691287
FINAL SINGLE POINT ENERGY     -1967.122024926345
FINAL SINGLE POINT ENERGY     -1967.122025141959
FINAL SINGLE POINT ENERGY     -1967.122025357359
Dispersion correction           -0.035769940
FINAL SINGLE POINT ENERGY     -1967.122025523523
Dispersion correction            ... done

CARTESIAN COORDINATES (ANGSTROEM)
---------------------------------
  C     -1.642945   -0.847936   -1.441310
  C     -0.638523    0.101828   -1.314885
  C      0.106462    0.184921   -0.136445
  C     -0.158262   -0.702834    0.909259
  C     -1.162326   -1.651395    0.779750
  C     -1.906804   -1.725920   -0.394619
  H     -2.219950   -0.901936   -2.355172
  H     -2.687599   -2.468798   -0.493613
  H     -0.430452    0.785046   -2.129253
  H      0.426328   -0.674726    1.820787
  H     -1.361020   -2.337000    1.593047
  C      1.145196    1.228641   -0.036124
  N      1.433566    1.787957    1.228176
  H      1.137726    1.957608   -0.834006
  H      2.428695    0.367383   -0.915419
  H      1.552393    2.791346    1.252904
  H      0.927290    1.419865    2.021353
  Cu     3.050223    0.685951    0.445571

Dispersion correction           -0.035770350
FINAL SINGLE POINT ENERGY     -1967.122025692156
Dispersion correction            ... done
                    ***********************HURRAY********************
 Multiplicity           Mult            ....    1
 Number of Electrons    NEL             ....   86
 Basis Dimension        Dim             ....  347

ORBITAL ENERGIES
----------------

  NO   OCC          E(Eh)            E(eV)
   0   2.0000    -323.068940     -8791.1528
   1   2.0000     -38.864577     -1057.5589
   2   2.0000     -34.069454      -927.0770
   3   2.0000     -34.069052      -927.0660
   4   2.0000     -34.068511      -927.0513
   5   2.0000     -14.394287      -391.6885
   6   2.0000     -10.304971      -280.4125
   7   2.0000     -10.224113      -278.2123
   8   2.0000     -10.208642      -277.7913
   9   2.0000     -10.207042      -277.7477
  10   2.0000     -10.202611      -277.6272
  11   2.0000     -10.202022      -277.6111
  12   2.0000     -10.201126      -277.5868
  13   2.0000      -4.354976      -118.5049
  14   2.0000      -2.853733       -77.6540
  15   2.0000      -2.849493       -77.5387
  16   2.0000      -2.842721       -77.3544
  17   2.0000      -0.984047       -26.7773
  18   2.0000      -0.892040       -24.2736
  19   2.0000      -0.802863       -21.8470
  20   2.0000      -0.779885       -21.2217
  21   2.0000      -0.714476       -19.4419
  22   2.0000      -0.644311       -17.5326
  23   2.0000      -0.627747       -17.0819
  24   2.0000      -0.585480       -15.9317
  25   2.0000      -0.559920       -15.2362
  26   2.0000      -0.519573       -14.1383
  27   2.0000      -0.491558       -13.3760
  28   2.0000      -0.477169       -12.9844
  29   2.0000      -0.473053       -12.8724
  30   2.0000      -0.452150       -12.3036
  31   2.0000      -0.445755       -12.1296
  32   2.0000      -0.399021       -10.8579
  33   2.0000      -0.393382       -10.7045
  34   2.0000      -0.379854       -10.3364
  35   2.0000      -0.373086       -10.1522
  36   2.0000      -0.347896        -9.4667
  37   2.0000      -0.338583        -9.2133
  38   2.0000      -0.335876        -9.1397
  39   2.0000      -0.327945        -8.9239
  40   2.0000      -0.293418        -7.9843
  41   2.0000      -0.288758        -7.8575
  42   2.0000      -0.263938        -7.1821
  43   0.0000      -0.115861        -3.1527
  44   0.0000      -0.054173        -1.4741
  45   0.0000      -0.043653        -1.1878
  46   0.0000      -0.024094        -0.6556
  47   0.0000       0.019802         0.5388

-------
TIMINGS
-------

Dispersion correction           -0.035770734
FINAL SINGLE POINT ENERGY     -1967.122025830561
                    ***********************HURRAY************************

DIPOLE MOMENT
-------------
                                X             Y             Z
Electronic contribution:     20.71389       4.90716       4.12427
Nuclear contribution   :    -19.13601      -3.21317      -2.83953
                        -----------------------------------------
Total Dipole Moment    :      1.57788       1.69399       1.28474
                        -----------------------------------------
Magnitude (a.u.)       :      2.64762
Magnitude (Debye)      :      6.72970

Dispersion correction in the Hessian             ... done   (      0.4 sec)

VIBRATIONAL FREQUENCIES
-----------------------

Scaling factor for frequencies =  1.000000000  (already applied!)

   0:         0.00 cm**-1
   1:         0.00 cm**-1
   2:         0.00 cm**-1
   3:         0.00 cm**-1
   4:         0.00 cm**-1
   5:         0.00 cm**-1
   6:      -838.08 cm**-1 ***imaginary mode***
   7:        47.61 cm**-1
   8:        76.09 cm**-1
   9:       168.45 cm**-1
  10:       234.11 cm**-1
  11:       259.12 cm**-1
  12:       362.19 cm**-1
  13:       409.64 cm**-1
  14:       420.52 cm**-1
  15:       486.33 cm**-1
  16:       526.40 cm**-1
  17:       582.11 cm**-1
  18:       631.23 cm**-1
  19:       634.17 cm**-1
  20:       693.04 cm**-1
  21:       709.49 cm**-1
  22:       791.79 cm**-1
  23:       809.21 cm**-1
  24:       855.72 cm**-1
  25:       945.71 cm**-1
  26:       988.73 cm**-1
  27:      1016.29 cm**-1
  28:      1021.92 cm**-1
  29:      1049.19 cm**-1
  30:      1094.30 cm**-1
  31:      1105.10 cm**-1
  32:      1141.27 cm**-1
  33:      1180.87 cm**-1
  34:      1183.04 cm**-1
  35:      1207.35 cm**-1
  36:      1244.72 cm**-1
  37:      1337.36 cm**-1
  38:      1368.12 cm**-1
  39:      1433.81 cm**-1
  40:      1492.75 cm**-1
  41:      1533.91 cm**-1
  42:      1623.25 cm**-1
  43:      1623.87 cm**-1
  44:      1639.49 cm**-1
  45:      1778.53 cm**-1
  46:      3170.78 cm**-1
  47:      3174.84 cm**-1
  48:      3183.76 cm**-1
  49:      3193.34 cm**-1
  50:      3197.01 cm**-1
  51:      3201.73 cm**-1
  52:      3528.21 cm**-1
  53:      3627.76 cm**-1

IR SPECTRUM
-----------

 Mode   freq       eps      Int      T**2         TX        TY        TZ
       cm**-1   L/(mol*cm) km/mol    a.u.
----------------------------------------------------------------------------
  7:     47.61   0.000437    2.21  0.002867  (-0.029749  0.039955 -0.019637)
  8:     76.09   0.000385    1.95  0.001579  ( 0.002392 -0.039590  0.002322)
  9:    168.45   0.001681    8.49  0.003114  (-0.030077 -0.045607  0.011357)
 10:    234.11   0.003372   17.04  0.004495  ( 0.053317  0.005633 -0.040261)
 11:    259.12   0.000304    1.54  0.000366  (-0.002594 -0.002416  0.018798)
 12:    362.19   0.009977   50.42  0.008596  ( 0.071778  0.008200 -0.058111)
 13:    409.64   0.000666    3.37  0.000507  ( 0.020483  0.008902 -0.002932)
 14:    420.52   0.015834   80.02  0.011750  (-0.096498 -0.034177  0.035638)
 15:    486.33   0.007311   36.95  0.004691  ( 0.066825 -0.003186 -0.014682)
 16:    526.40   0.009995   50.51  0.005925  ( 0.054448  0.024708 -0.048479)
 17:    582.11   0.005964   30.14  0.003197  (-0.027028  0.042885  0.025053)
 18:    631.23   0.021759  109.96  0.010757  (-0.066315 -0.057825 -0.054916)
 19:    634.17   0.012279   62.05  0.006042  ( 0.052503  0.035297  0.045165)
 20:    693.04   0.045759  231.25  0.020605  ( 0.130859 -0.011146  0.057935)
 21:    709.49   0.026798  135.42  0.011787  (-0.082572  0.068314  0.017367)
 22:    791.79   0.001834    9.27  0.000723  ( 0.004439 -0.014632 -0.022113)
 23:    809.21   0.004179   21.12  0.001612  (-0.038375  0.000460  0.011777)
 24:    855.72   0.000034    0.17  0.000012  (-0.001916 -0.002434 -0.001654)
 25:    945.71   0.000358    1.81  0.000118  (-0.007809  0.004405  0.006145)
 26:    988.73   0.000048    0.24  0.000015  ( 0.001963  0.000733  0.003262)
 27:   1016.29   0.000027    0.14  0.000008  (-0.001821 -0.001776 -0.001385)
 28:   1021.92   0.000355    1.80  0.000108  ( 0.010078  0.002387  0.001106)
 29:   1049.19   0.001770    8.94  0.000526  ( 0.006928  0.019820  0.009251)
 30:   1094.30   0.006831   34.52  0.001948  (-0.011341  0.039139  0.016960)
 31:   1105.10   0.007069   35.73  0.001996  ( 0.009665 -0.014431 -0.041166)
 32:   1141.27   0.005299   26.78  0.001449  (-0.035032  0.013699  0.005841)
 33:   1180.87   0.002865   14.48  0.000757  (-0.014803  0.009126  0.021321)
 34:   1183.04   0.000262    1.32  0.000069  (-0.007306  0.002007  0.003418)
 35:   1207.35   0.000925    4.68  0.000239  (-0.009128 -0.010807 -0.006252)
 36:   1244.72   0.017509   88.48  0.004390  (-0.033323 -0.047220 -0.032396)
 37:   1337.36   0.002191   11.07  0.000511  (-0.017253 -0.011126 -0.009475)
 38:   1368.12   0.001177    5.95  0.000269  (-0.005336 -0.015045  0.003698)
 39:   1433.81   0.011774   59.50  0.002563  ( 0.030548  0.038301  0.012743)
 40:   1492.75   0.004167   21.06  0.000871  (-0.013851  0.002332 -0.025957)
 41:   1533.91   0.000292    1.48  0.000059  ( 0.004051  0.003958 -0.005234)
 42:   1623.25   0.000549    2.77  0.000106  ( 0.005202  0.008082  0.003631)
 43:   1623.87   0.018294   92.45  0.003516  (-0.002181 -0.029905 -0.051152)
 44:   1639.49   0.003186   16.10  0.000607  (-0.016687 -0.016504 -0.007461)
 45:   1778.53   0.007836   39.60  0.001375  ( 0.004794  0.025983  0.026017)
 46:   3170.78   0.001123    5.67  0.000110  ( 0.007303  0.005404  0.005286)
 47:   3174.84   0.000313    1.58  0.000031  (-0.000969 -0.003821  0.003899)
 48:   3183.76   0.000519    2.63  0.000051  (-0.003857 -0.005843 -0.001381)
 49:   3193.34   0.002731   13.80  0.000267  (-0.003711  0.005732 -0.014842)
 50:   3197.01   0.000345    1.74  0.000034  ( 0.004439 -0.003605 -0.001002)
 51:   3201.73   0.001785    9.02  0.000174  (-0.010428 -0.008024 -0.000926)
 52:   3528.21   0.025090  126.79  0.002219  (-0.015783  0.030695  0.032061)
 53:   3627.76   0.022426  113.33  0.001929  (-0.015536 -0.037545  0.016677)

--------------------------
THERMOCHEMISTRY AT 298.15K
--------------------------

Temperature         ... 298.15 K
Pressure            ... 1.00 atm
Total Mass          ... 170.71 AMU

Throughout the following assumptions are being made:
  (1) The electronic state is orbitally nondegenerate
  (2) There are no thermally accessible electronically excited states
  (3) Hindered rotations indicated by low frequency modes are not
      treated as such but are treated as vibrations and this may
      cause some error
  (4) All equations used are the standard statistical mechanics
      equations for an ideal gas
  (5) All vibrations are strictly harmonic

freq.      47.61  E(vib)   ...       0.53
freq.      76.09  E(vib)   ...       0.49
freq.     168.45  E(vib)   ...       0.38
freq.     234.11  E(vib)   ...       0.32
freq.     259.12  E(vib)   ...       0.30
freq.     362.19  E(vib)   ...       0.22
freq.     409.64  E(vib)   ...       0.19
freq.     420.52  E(vib)   ...       0.18
freq.     486.33  E(vib)   ...       0.15
freq.     526.40  E(vib)   ...       0.13
freq.     582.11  E(vib)   ...       0.11
freq.     631.23  E(vib)   ...       0.09
freq.     634.17  E(vib)   ...       0.09
freq.     693.04  E(vib)   ...       0.07
freq.     709.49  E(vib)   ...       0.07
freq.     791.79  E(vib)   ...       0.05
freq.     809.21  E(vib)   ...       0.05
freq.     855.72  E(vib)   ...       0.04
freq.     945.71  E(vib)   ...       0.03
freq.     988.73  E(vib)   ...       0.02
freq.    1016.29  E(vib)   ...       0.02
freq.    1021.92  E(vib)   ...       0.02
freq.    1049.19  E(vib)   ...       0.02
freq.    1094.30  E(vib)   ...       0.02
freq.    1105.10  E(vib)   ...       0.02
freq.    1141.27  E(vib)   ...       0.01
freq.    1180.87  E(vib)   ...       0.01
freq.    1183.04  E(vib)   ...       0.01
freq.    1207.35  E(vib)   ...       0.01
freq.    1244.72  E(vib)   ...       0.01
freq.    1337.36  E(vib)   ...       0.01
freq.    1368.12  E(vib)   ...       0.01
freq.    1433.81  E(vib)   ...       0.00
freq.    1492.75  E(vib)   ...       0.00
freq.    1533.91  E(vib)   ...       0.00
freq.    1623.25  E(vib)   ...       0.00
freq.    1623.87  E(vib)   ...       0.00
freq.    1639.49  E(vib)   ...       0.00
freq.    1778.53  E(vib)   ...       0.00
freq.    3170.78  E(vib)   ...       0.00
freq.    3174.84  E(vib)   ...       0.00
freq.    3183.76  E(vib)   ...       0.00
freq.    3193.34  E(vib)   ...       0.00
freq.    3197.01  E(vib)   ...       0.00
freq.    3201.73  E(vib)   ...       0.00
freq.    3528.21  E(vib)   ...       0.00
freq.    3627.76  E(vib)   ...       0.00

------------
INNER ENERGY
------------

The inner energy is: U= E(el) + E(ZPE) + E(vib) + E(rot) + E(trans)
    E(el)   - is the total energy from the electronic structure calculation
              = E(kin-el) + E(nuc-el) + E(el-el) + E(nuc-nuc)
    E(ZPE)  - the the zero temperature vibrational energy from the frequency calculation
    E(vib)  - the the finite temperature correction to E(ZPE) due to population
              of excited vibrational states
    E(rot)  - is the rotational thermal energy
    E(trans)- is the translational thermal energy

Summary of contributions to the inner energy U:
Electronic energy                ...  -1967.12202583 Eh
Zero point energy                ...      0.14121043 Eh      88.61 kcal/mol
Thermal vibrational correction   ...      0.00585887 Eh       3.68 kcal/mol
Thermal rotational correction    ...      0.00141627 Eh       0.89 kcal/mol
Thermal translational correction ...      0.00141627 Eh       0.89 kcal/mol
-----------------------------------------------------------------------
Total thermal energy                  -1966.97212399 Eh

Summary of corrections to the electronic energy:
(perhaps to be used in another calculation)
Total thermal correction                  0.00869141 Eh       5.45 kcal/mol
Non-thermal (ZPE) correction              0.14121043 Eh      88.61 kcal/mol
-----------------------------------------------------------------------
Total correction                          0.14990185 Eh      94.06 kcal/mol

--------
ENTHALPY
--------

The enthalpy is H = U + kB*T
                kB is Boltzmann's constant
Total free energy                 ...  -1966.97212399 Eh
Thermal Enthalpy correction       ...      0.00094421 Eh       0.59 kcal/mol
-----------------------------------------------------------------------
Total Enthalpy                    ...  -1966.97117978 Eh

Note: Only C1 symmetry has been detected, increase convergence thresholds
      if your molecule has a higher symmetry. Symmetry factor of 1.0 is
      used for the rotational entropy correction.

Note: Rotational entropy computed according to Herzberg
Infrared and Raman Spectra, Chapter V,1, Van Nostrand Reinhold, 1945
Point Group:  C1, Symmetry Number:   1
Rotational constants in cm-1:     0.103236     0.020520     0.019658

Vibrational entropy computed according to the QRRHO of S. Grimme
Chem.Eur.J. 2012 18 9955

-------
ENTROPY
-------

The entropy contributions are T*S = T*(S(el)+S(vib)+S(rot)+S(trans))
     S(el)   - electronic entropy
     S(vib)  - vibrational entropy
     S(rot)  - rotational entropy
     S(trans)- translational entropy
The entropies will be listed as multiplied by the temperature to get
units of energy

Electronic entropy                ...      0.00000000 Eh      0.00 kcal/mol
Vibrational entropy               ...      0.00977449 Eh      6.13 kcal/mol
Rotational entropy                ...      0.01427250 Eh      8.96 kcal/mol
Translational entropy             ...      0.01962863 Eh     12.32 kcal/mol
-----------------------------------------------------------------------
Final entropy term                ...      0.04367562 Eh     27.41 kcal/mol

In case the symmetry of your molecule has not been determined correctly
or in case you have a reason to use a different symmetry number we print
out the resulting rotational entropy values for sn=1,12 :
 --------------------------------------------------------
|  sn= 1 | S(rot)=       0.01427250 Eh      8.96 kcal/mol|
|  sn= 2 | S(rot)=       0.01361804 Eh      8.55 kcal/mol|
|  sn= 3 | S(rot)=       0.01323521 Eh      8.31 kcal/mol|
|  sn= 4 | S(rot)=       0.01296358 Eh      8.13 kcal/mol|
|  sn= 5 | S(rot)=       0.01275290 Eh      8.00 kcal/mol|
|  sn= 6 | S(rot)=       0.01258075 Eh      7.89 kcal/mol|
|  sn= 7 | S(rot)=       0.01243521 Eh      7.80 kcal/mol|
|  sn= 8 | S(rot)=       0.01230913 Eh      7.72 kcal/mol|
|  sn= 9 | S(rot)=       0.01219792 Eh      7.65 kcal/mol|
|  sn=10 | S(rot)=       0.01209844 Eh      7.59 kcal/mol|
|  sn=11 | S(rot)=       0.01200845 Eh      7.54 kcal/mol|
|  sn=12 | S(rot)=       0.01192630 Eh      7.48 kcal/mol|
 --------------------------------------------------------

-------------------

                             ****ORCA TERMINATED NORMALLY****
TOTAL RUN TIME: 0 days 21 hours 26 minutes 40 seconds 611 msec
