                         Program Version 6.1.0-f.0  -   RELEASE   -
|  1> !B3LYP DEF2-TZVP D3BJ
|  2> !OPT FREQ TightOPT TightSCF defgrid2
|  3> %SCF
|  4>     MaxIter 2000       # Here setting MaxIter to a very high number. Intended for systems that require sometimes 1000 iterations before converging (very rare).
|  5>     DIISMaxEq 5        # Default value is 5. A value of 15-40 necessary for difficult systems.
|  6>     directresetfreq 15 # Default value is 15. A value of 1 (very expensive) is sometimes required. A value between 1 and 15 may be more cost-effective.
|  7> END
|  8> %CPCM EPSILON 6.02 REFRAC 1.3723 END
|  9> %PAL NPROCS 32 END
| 10> %maxcore 2000 # This indicates you want ORCA to use only 2GB per core maximum, so ORCA will use only 2GB*32=64GB of memory in total.
| 11> %GEOM
| 12>     Constraints
| 13>         {C 0 C}
| 14>         {C 1 C}
| 15>         {C 2 C}
| 16>         {C 3 C}
| 17>         {C 4 C}
| 18>         {C 5 C}
| 19>     END
| 20> END
| 21> * xyzfile 1 1 reactant.xyz
| 22>
| 23>                          ****END OF INPUT****
 Total Charge           Charge          ....    1
 Multiplicity           Mult            ....    1
 Number of Electrons    NEL             ....   86
Dispersion correction           -0.034046204
FINAL SINGLE POINT ENERGY     -1967.067812059418
Dispersion correction             ... done (  0.0 sec)
Dispersion correction           -0.033882884
FINAL SINGLE POINT ENERGY     -1967.100553291316
Dispersion correction             ... done (  0.0 sec)
Dispersion correction           -0.033787835
FINAL SINGLE POINT ENERGY     -1967.125868974587
Dispersion correction             ... done (  0.0 sec)
FINAL SINGLE POINT ENERGY     -1967.154093917894
FINAL SINGLE POINT ENERGY     -1967.176198344892
FINAL SINGLE POINT ENERGY     -1967.183262719601
FINAL SINGLE POINT ENERGY     -1967.185330135193
FINAL SINGLE POINT ENERGY     -1967.186864414426
FINAL SINGLE POINT ENERGY     -1967.187556082498
FINAL SINGLE POINT ENERGY     -1967.188141978825
FINAL SINGLE POINT ENERGY     -1967.195756281105
FINAL SINGLE POINT ENERGY     -1967.195709330698
FINAL SINGLE POINT ENERGY     -1967.195764176998
FINAL SINGLE POINT ENERGY     -1967.195782659466
FINAL SINGLE POINT ENERGY     -1967.195768803312
FINAL SINGLE POINT ENERGY     -1967.195779528617
FINAL SINGLE POINT ENERGY     -1967.195775665379
Dispersion correction             ... done (  0.0 sec)
Dispersion correction           -0.037573503
FINAL SINGLE POINT ENERGY     -1967.195737660567
Dispersion correction             ... done (  0.0 sec)
Dispersion correction           -0.037573816
FINAL SINGLE POINT ENERGY     -1967.195779571713
Dispersion correction             ... done (  0.0 sec)
                    ***********************HURRAY********************

CARTESIAN COORDINATES (ANGSTROEM)
---------------------------------
  C     -2.988620    1.819329    1.605387
  C     -1.900138    2.666334    1.504382
  C     -0.727727    2.400106    2.235605
  C     -0.667116    1.266306    3.067942
  C     -1.760024    0.429263    3.163972
  C     -2.919247    0.701852    2.432981
  H     -3.890694    2.021161    1.042237
  H     -3.768224    0.034995    2.510739
  H     -1.939148    3.542178    0.868352
  H      0.260812    1.020018    3.577331
  H     -1.714517   -0.453910    3.788410
  C      0.420312    3.375268    2.239568
  N      0.320943    4.232781    3.463300
  H     -0.299640    5.018480    3.283608
  H      1.226608    4.628934    3.698357
  H      0.418379    3.993049    1.341216
  H      1.370535    2.845853    2.294932
  Cu    -0.529929    3.095502    4.868359

 Multiplicity           Mult            ....    1
 Number of Electrons    NEL             ....   86
 Basis Dimension        Dim             ....  347

ORBITAL ENERGIES
----------------

  NO   OCC          E(Eh)            E(eV)
   0   2.0000    -323.020917     -8789.8460
   1   2.0000     -38.809213     -1056.0524
   2   2.0000     -34.014177      -925.5728
   3   2.0000     -34.014077      -925.5701
   4   2.0000     -34.013802      -925.5626
   5   2.0000     -14.381823      -391.3493
   6   2.0000     -10.238400      -278.6010
   7   2.0000     -10.218900      -278.0704
   8   2.0000     -10.209060      -277.8026
   9   2.0000     -10.203865      -277.6613
  10   2.0000     -10.203034      -277.6387
  11   2.0000     -10.201621      -277.6002
  12   2.0000     -10.200220      -277.5621
  13   2.0000      -4.303290      -117.0985
  14   2.0000      -2.798483       -76.1506
  15   2.0000      -2.798239       -76.1439
  16   2.0000      -2.797019       -76.1108
  17   2.0000      -0.950051       -25.8522
  18   2.0000      -0.888090       -24.1662
  19   2.0000      -0.794412       -21.6171
  20   2.0000      -0.781123       -21.2554
  21   2.0000      -0.705208       -19.1897
  22   2.0000      -0.638664       -17.3789
  23   2.0000      -0.616358       -16.7719
  24   2.0000      -0.557730       -15.1766
  25   2.0000      -0.539926       -14.6921
  26   2.0000      -0.517079       -14.0704
  27   2.0000      -0.485675       -13.2159
  28   2.0000      -0.482511       -13.1298
  29   2.0000      -0.455406       -12.3922
  30   2.0000      -0.447006       -12.1637
  31   2.0000      -0.422105       -11.4861
  32   2.0000      -0.402489       -10.9523
  33   2.0000      -0.386065       -10.5054
  34   2.0000      -0.371610       -10.1120
  35   2.0000      -0.363118        -9.8809
  36   2.0000      -0.308400        -8.3920
  37   2.0000      -0.295620        -8.0442
  38   2.0000      -0.292012        -7.9460
  39   2.0000      -0.291470        -7.9313
  40   2.0000      -0.285626        -7.7723
  41   2.0000      -0.283255        -7.7078
  42   2.0000      -0.257210        -6.9990
  43   0.0000      -0.089880        -2.4457
  44   0.0000      -0.053386        -1.4527
  45   0.0000      -0.044482        -1.2104
  46   0.0000       0.014886         0.4051
  47   0.0000       0.026436         0.7194

MULLIKEN ATOMIC CHARGES
-----------------------
   0 C :   -0.106567
   1 C :   -0.223858
   2 C :    0.224640
   3 C :   -0.233502
   4 C :   -0.113763
   5 C :   -0.140935
   6 H :    0.149214
   7 H :    0.148591
   8 H :    0.143171
   9 H :    0.152767
  10 H :    0.150165
  11 C :   -0.141096
  12 N :   -0.433048
  13 H :    0.274986
  14 H :    0.276311
  15 H :    0.149377
  16 H :    0.154075
  17 Cu:    0.569473
Sum of atomic charges:    1.0000000

LOEWDIN ATOMIC CHARGES
----------------------
   0 C :   -0.123459
   1 C :   -0.098212
   2 C :   -0.134946
   3 C :   -0.112181
   4 C :   -0.118501
   5 C :   -0.123537
   6 H :    0.154060
   7 H :    0.152362
   8 H :    0.155654
   9 H :    0.175397
  10 H :    0.154946
  11 C :   -0.214980
  12 N :   -0.011073
  13 H :    0.195937
  14 H :    0.192823
  15 H :    0.142349
  16 H :    0.151645
  17 Cu:    0.461716

  Mayer bond orders larger than 0.100000
B(  0-C ,  1-C ) :   1.3986 B(  0-C ,  5-C ) :   1.3855 B(  0-C ,  6-H ) :   0.9724
B(  1-C ,  2-C ) :   1.3879 B(  1-C ,  8-H ) :   0.9760 B(  2-C ,  3-C ) :   1.2376
B(  2-C , 11-C ) :   0.9317 B(  2-C , 12-N ) :  -0.1162 B(  3-C ,  4-C ) :   1.3900
B(  3-C ,  9-H ) :   0.9603 B(  3-C , 17-Cu) :   0.1194 B(  4-C ,  5-C ) :   1.3868
B(  4-C , 10-H ) :   0.9701 B(  5-C ,  7-H ) :   0.9689 B( 11-C , 12-N ) :   0.9226
B( 11-C , 15-H ) :   0.9839 B( 11-C , 16-H ) :   0.9706 B( 12-N , 13-H ) :   0.9077
B( 12-N , 14-H ) :   0.9092 B( 12-N , 17-Cu) :   0.5715

Dispersion correction           -0.037574616
FINAL SINGLE POINT ENERGY     -1967.195772094507

DIPOLE MOMENT
-------------

Method             : SCF
Type of density    : Electron Density
Multiplicity       :   1
Irrep              :   0
Energy             : -1967.1581974784139675 Eh
Basis              : AO
                                X                 Y                 Z
Electronic contribution:      3.005002986       4.522114552      16.420053372
Nuclear contribution   :     -1.932911072      -3.017677139     -15.216537679
                        -----------------------------------------
Total Dipole Moment    :      1.072091914       1.504437413       1.203515693
                        -----------------------------------------
Magnitude (a.u.)       :      2.204804532
Magnitude (Debye)      :      5.604167750

VIBRATIONAL FREQUENCIES
-----------------------

Scaling factor for frequencies =  1.000000000  (already applied!)

     0:       0.00 cm**-1
     1:       0.00 cm**-1
     2:       0.00 cm**-1
     3:       0.00 cm**-1
     4:       0.00 cm**-1
     5:       0.00 cm**-1
     6:      42.31 cm**-1
     7:      91.47 cm**-1
     8:     115.23 cm**-1
     9:     148.51 cm**-1
    10:     301.86 cm**-1
    11:     348.41 cm**-1
    12:     410.80 cm**-1
    13:     422.78 cm**-1
    14:     511.75 cm**-1
    15:     541.21 cm**-1
    16:     630.50 cm**-1
    17:     633.25 cm**-1
    18:     727.17 cm**-1
    19:     774.55 cm**-1
    20:     817.27 cm**-1
    21:     866.77 cm**-1
    22:     928.61 cm**-1
    23:     940.02 cm**-1
    24:     977.65 cm**-1
    25:     991.89 cm**-1
    26:    1015.28 cm**-1
    27:    1020.35 cm**-1
    28:    1038.75 cm**-1
    29:    1077.09 cm**-1
    30:    1113.35 cm**-1
    31:    1157.72 cm**-1
    32:    1181.49 cm**-1
    33:    1196.07 cm**-1
    34:    1236.80 cm**-1
    35:    1302.99 cm**-1
    36:    1342.57 cm**-1
    37:    1364.16 cm**-1
    38:    1397.35 cm**-1
    39:    1496.74 cm**-1
    40:    1497.24 cm**-1
    41:    1517.62 cm**-1
    42:    1600.35 cm**-1
    43:    1621.44 cm**-1
    44:    1652.26 cm**-1
    45:    3065.51 cm**-1
    46:    3116.43 cm**-1
    47:    3129.95 cm**-1
    48:    3172.70 cm**-1
    49:    3179.64 cm**-1
    50:    3188.36 cm**-1
    51:    3197.97 cm**-1
    52:    3467.63 cm**-1
    53:    3530.37 cm**-1

IR SPECTRUM
-----------

 Mode   freq       eps      Int      T**2         TX        TY        TZ
       cm**-1   L/(mol*cm) km/mol    a.u.
----------------------------------------------------------------------------
  6:     42.31   0.001128    5.70  0.008318  ( 0.036929  0.046633  0.069137)
  7:     91.47   0.000255    1.29  0.000872  ( 0.025504  0.012848  0.007494)
  8:    115.23   0.000463    2.34  0.001255  (-0.032899  0.012155  0.005010)
  9:    148.51   0.003111   15.72  0.006538  (-0.006305 -0.034870 -0.072681)
 10:    301.86   0.000470    2.37  0.000486  (-0.012572 -0.014856 -0.010345)
 11:    348.41   0.000315    1.59  0.000282  (-0.013650  0.009663 -0.001484)
 12:    410.80   0.000256    1.29  0.000194  (-0.002698  0.008889  0.010384)
 13:    422.78   0.000641    3.24  0.000473  (-0.002143  0.020146  0.007925)
 14:    511.75   0.002304   11.64  0.001405  ( 0.000561  0.019818  0.031806)
 15:    541.21   0.007794   39.39  0.004494  (-0.059773  0.014212 -0.026821)
 16:    630.50   0.007439   37.59  0.003682  ( 0.060571 -0.002574  0.002509)
 17:    633.25   0.000214    1.08  0.000105  ( 0.009302 -0.004207  0.001053)
 18:    727.17   0.017565   88.77  0.007538  (-0.033559  0.045032  0.066210)
 19:    774.55   0.007424   37.52  0.002991  (-0.006495  0.030173  0.045148)
 20:    817.27   0.004772   24.11  0.001822  (-0.011818 -0.022619 -0.034215)
 21:    866.77   0.000311    1.57  0.000112  ( 0.007164 -0.002035  0.007526)
 22:    928.61   0.007770   39.26  0.002611  ( 0.005641 -0.020517 -0.046457)
 23:    940.02   0.002839   14.35  0.000943  (-0.008914 -0.013635 -0.026024)
 24:    977.65   0.003315   16.75  0.001058  ( 0.007141  0.019678  0.024897)
 25:    991.89   0.000243    1.23  0.000076  ( 0.003321  0.001801  0.007877)
 26:   1015.28   0.000405    2.05  0.000125  ( 0.001929  0.004757  0.009908)
 27:   1020.35   0.000166    0.84  0.000051  (-0.004163 -0.003821 -0.004338)
 28:   1038.75   0.001036    5.24  0.000311  (-0.012462 -0.010230  0.007160)
 29:   1077.09   0.017553   88.71  0.005086  ( 0.011618  0.008716 -0.069820)
 30:   1113.35   0.002450   12.38  0.000687  ( 0.018693 -0.007188 -0.016898)
 31:   1157.72   0.001484    7.50  0.000400  ( 0.003773 -0.009082  0.017418)
 32:   1181.49   0.000096    0.49  0.000025  ( 0.000694  0.003353 -0.003697)
 33:   1196.07   0.000056    0.28  0.000015  (-0.000169 -0.003362  0.001803)
 34:   1236.80   0.002793   14.11  0.000705  (-0.019382 -0.016993  0.006343)
 35:   1302.99   0.000818    4.13  0.000196  (-0.004936 -0.011933  0.005390)
 36:   1342.57   0.000160    0.81  0.000037  (-0.001836  0.002433  0.005280)
 37:   1364.16   0.000008    0.04  0.000002  (-0.000299 -0.000852  0.001002)
 38:   1397.35   0.003734   18.87  0.000834  (-0.018235 -0.021319 -0.006849)
 39:   1496.74   0.001459    7.37  0.000304  ( 0.013774 -0.010591  0.001533)
 40:   1497.24   0.001060    5.36  0.000221  (-0.005363 -0.010374  0.009196)
 41:   1517.62   0.001835    9.27  0.000377  ( 0.015642  0.010739 -0.004162)
 42:   1600.35   0.001394    7.04  0.000272  (-0.010955  0.005230 -0.011153)
 43:   1621.44   0.010037   50.72  0.001932  ( 0.003143  0.043343  0.006578)
 44:   1652.26   0.000441    2.23  0.000083  ( 0.003515  0.006743  0.005045)
 45:   3065.51   0.005893   29.78  0.000600  (-0.015449 -0.004730  0.018408)
 46:   3116.43   0.001972    9.97  0.000197  (-0.008822  0.007922 -0.007543)
 47:   3129.95   0.001288    6.51  0.000128  ( 0.009187  0.003716  0.005499)
 48:   3172.70   0.000568    2.87  0.000056  (-0.002746 -0.005855  0.003748)
 49:   3179.64   0.000497    2.51  0.000049  ( 0.006072  0.003427 -0.000415)
 50:   3188.36   0.003052   15.43  0.000299  (-0.003348  0.013267 -0.010561)
 51:   3197.97   0.001948    9.85  0.000190  ( 0.012040  0.006013  0.002999)
 52:   3467.63   0.005454   27.56  0.000491  ( 0.003668  0.021749  0.002088)
 53:   3530.37   0.010680   53.97  0.000944  ( 0.028354 -0.007865  0.008846)

--------------------------
THERMOCHEMISTRY AT 298.15K
--------------------------

Temperature         ...   298.15 K
Pressure            ...     1.00 atm
Total Mass          ...   170.71 AMU
Quasi RRHO          ...     True
Cut-Off Frequency   ...     1.00 cm^-1

Throughout the following assumptions are being made:
  (1) The electronic state is orbitally nondegenerate
  (2) There are no thermally accessible electronically excited states
  (3) Hindered rotations indicated by low frequency modes are not
      treated as such but are treated as vibrations and this may
      cause some error
  (4) All equations used are the standard statistical mechanics
      equations for an ideal gas
  (5) All vibrations are strictly harmonic

freq.      42.31  E(vib)   ...       0.53
freq.      91.47  E(vib)   ...       0.47
freq.     115.23  E(vib)   ...       0.44
freq.     148.51  E(vib)   ...       0.41
freq.     301.86  E(vib)   ...       0.26
freq.     348.41  E(vib)   ...       0.23
freq.     410.80  E(vib)   ...       0.19
freq.     422.78  E(vib)   ...       0.18
freq.     511.75  E(vib)   ...       0.14
freq.     541.21  E(vib)   ...       0.12
freq.     630.50  E(vib)   ...       0.09
freq.     633.25  E(vib)   ...       0.09
freq.     727.17  E(vib)   ...       0.06
freq.     774.55  E(vib)   ...       0.05
freq.     817.27  E(vib)   ...       0.05
freq.     866.77  E(vib)   ...       0.04
freq.     928.61  E(vib)   ...       0.03
freq.     940.02  E(vib)   ...       0.03
freq.     977.65  E(vib)   ...       0.03
freq.     991.89  E(vib)   ...       0.02
freq.    1015.28  E(vib)   ...       0.02
freq.    1020.35  E(vib)   ...       0.02
freq.    1038.75  E(vib)   ...       0.02
freq.    1077.09  E(vib)   ...       0.02
freq.    1113.35  E(vib)   ...       0.01
freq.    1157.72  E(vib)   ...       0.01
freq.    1181.49  E(vib)   ...       0.01
freq.    1196.07  E(vib)   ...       0.01
freq.    1236.80  E(vib)   ...       0.01
freq.    1302.99  E(vib)   ...       0.01
freq.    1342.57  E(vib)   ...       0.01
freq.    1364.16  E(vib)   ...       0.01
freq.    1397.35  E(vib)   ...       0.00
freq.    1496.74  E(vib)   ...       0.00
freq.    1497.24  E(vib)   ...       0.00
freq.    1517.62  E(vib)   ...       0.00
freq.    1600.35  E(vib)   ...       0.00
freq.    1621.44  E(vib)   ...       0.00
freq.    1652.26  E(vib)   ...       0.00
freq.    3065.51  E(vib)   ...       0.00
freq.    3116.43  E(vib)   ...       0.00
freq.    3129.95  E(vib)   ...       0.00
freq.    3172.70  E(vib)   ...       0.00
freq.    3179.64  E(vib)   ...       0.00
freq.    3188.36  E(vib)   ...       0.00
freq.    3197.97  E(vib)   ...       0.00
freq.    3467.63  E(vib)   ...       0.00
freq.    3530.37  E(vib)   ...       0.00

------------
INNER ENERGY
------------

The inner energy is: U= E(el) + E(ZPE) + E(vib) + E(rot) + E(trans)
    E(el)   - is the total energy from the electronic structure calculation
              = E(kin-el) + E(nuc-el) + E(el-el) + E(nuc-nuc)
    E(ZPE)  - the the zero temperature vibrational energy from the frequency calculation
    E(vib)  - the the finite temperature correction to E(ZPE) due to population
              of excited vibrational states
    E(rot)  - is the rotational thermal energy
    E(trans)- is the translational thermal energy

Summary of contributions to the inner energy U:
Electronic energy                ...  -1967.19577209 Eh
Zero point energy                ...      0.14830916 Eh      93.07 kcal/mol
Thermal vibrational correction   ...      0.00579612 Eh       3.64 kcal/mol
Thermal rotational correction    ...      0.00141627 Eh       0.89 kcal/mol
Thermal translational correction ...      0.00141627 Eh       0.89 kcal/mol
-----------------------------------------------------------------------
Total thermal energy                  -1967.03883427 Eh

Summary of corrections to the electronic energy:
(perhaps to be used in another calculation)
Total thermal correction                  0.00862867 Eh       5.41 kcal/mol
Non-thermal (ZPE) correction              0.14830916 Eh      93.07 kcal/mol
-----------------------------------------------------------------------
Total correction                          0.15693782 Eh      98.48 kcal/mol

--------
ENTHALPY
--------

The enthalpy is H = U + kB*T
                kB is Boltzmann's constant
Total thermal energy              ...  -1967.03883427 Eh
Thermal Enthalpy correction       ...      0.00094421 Eh       0.59 kcal/mol
-----------------------------------------------------------------------
Total Enthalpy                    ...  -1967.03789006 Eh

Note: Only C1 symmetry has been detected, increase convergence thresholds
      if your molecule has a higher symmetry. Symmetry factor of 1.0 is
      used for the rotational entropy correction.

Note: Rotational entropy computed according to Herzberg
Infrared and Raman Spectra, Chapter V,1, Van Nostrand Reinhold, 1945
Point Group:  C1, Symmetry Number:   1
Rotational constants in cm-1:     0.070837     0.031906     0.025895

Vibrational entropy computed according to the QRRHO of S. Grimme
Chem.Eur.J. 2012 18 9955 using a reference frequency of 100.0 cm-1

-------
ENTROPY
-------

The entropy contributions are T*S = T*(S(el)+S(vib)+S(rot)+S(trans))
     S(el)   - electronic entropy
     S(vib)  - vibrational entropy
     S(rot)  - rotational entropy
     S(trans)- translational entropy
The entropies will be listed as multiplied by the temperature to get
units of energy

Electronic entropy                ...      0.00000000 Eh      0.00 kcal/mol
Vibrational entropy               ...      0.00999136 Eh      6.27 kcal/mol
Rotational entropy                ...      0.01411183 Eh      8.86 kcal/mol
Translational entropy             ...      0.01962863 Eh     12.32 kcal/mol
-----------------------------------------------------------------------
Final entropy term                ...      0.04373182 Eh     27.44 kcal/mol

In case the symmetry of your molecule has not been determined correctly
or in case you have a reason to use a different symmetry number we print
out the resulting rotational entropy values for sn=1,12:

 non-linear molecules -----------------------------------
|  sn= 1 | S(rot)=       0.01411183 Eh      8.86 kcal/mol|
|  sn= 2 | S(rot)=       0.01345738 Eh      8.44 kcal/mol|
|  sn= 3 | S(rot)=       0.01307454 Eh      8.20 kcal/mol|
|  sn= 4 | S(rot)=       0.01280292 Eh      8.03 kcal/mol|
|  sn= 5 | S(rot)=       0.01259223 Eh      7.90 kcal/mol|
|  sn= 6 | S(rot)=       0.01242009 Eh      7.79 kcal/mol|
|  sn= 7 | S(rot)=       0.01227454 Eh      7.70 kcal/mol|
|  sn= 8 | S(rot)=       0.01214846 Eh      7.62 kcal/mol|
|  sn= 9 | S(rot)=       0.01203726 Eh      7.55 kcal/mol|
|  sn=10 | S(rot)=       0.01193778 Eh      7.49 kcal/mol|
|  sn=11 | S(rot)=       0.01184779 Eh      7.43 kcal/mol|
|  sn=12 | S(rot)=       0.01176563 Eh      7.38 kcal/mol|

                             ****ORCA TERMINATED NORMALLY****
TOTAL RUN TIME: 0 days 5 hours 58 minutes 55 seconds 74 msec
