                         Program Version 6.1.0-f.0  -   RELEASE   -
|  1> !B3LYP DEF2-TZVP D3BJ
|  2> !OPT FREQ TightOPT TightSCF defgrid2
|  3> %SCF
|  4>     MaxIter 2000       # Here setting MaxIter to a very high number. Intended for systems that require sometimes 1000 iterations before converging (very rare).
|  5>     DIISMaxEq 5        # Default value is 5. A value of 15-40 necessary for difficult systems.
|  6>     directresetfreq 15 # Default value is 15. A value of 1 (very expensive) is sometimes required. A value between 1 and 15 may be more cost-effective.
|  7> END
|  8> %CPCM EPSILON 6.02 REFRAC 1.3723 END
|  9> %PAL NPROCS 32 END
| 10> %maxcore 2000 # This indicates you want ORCA to use only 2GB per core maximum, so ORCA will use only 2GB*32=64GB of memory in total.
| 11> * xyzfile 1 1 product.xyz
| 12>
| 13>                          ****END OF INPUT****
 Total Charge           Charge          ....    1
 Multiplicity           Mult            ....    1
 Number of Electrons    NEL             ....   86
Dispersion correction           -0.034866814
FINAL SINGLE POINT ENERGY     -1967.060341533310
Dispersion correction             ... done (  0.0 sec)
Dispersion correction           -0.035252837
FINAL SINGLE POINT ENERGY     -1967.075828677552
Dispersion correction             ... done (  0.0 sec)
Dispersion correction           -0.035552416
FINAL SINGLE POINT ENERGY     -1967.087760584604
Dispersion correction             ... done (  0.0 sec)
FINAL SINGLE POINT ENERGY     -1967.097030159968
FINAL SINGLE POINT ENERGY     -1967.107880564670
FINAL SINGLE POINT ENERGY     -1967.119415248484
FINAL SINGLE POINT ENERGY     -1967.128319657106
FINAL SINGLE POINT ENERGY     -1967.134396912103
FINAL SINGLE POINT ENERGY     -1967.138172863540
FINAL SINGLE POINT ENERGY     -1967.141266442080
FINAL SINGLE POINT ENERGY     -1967.143494626858
FINAL SINGLE POINT ENERGY     -1967.143506997414
FINAL SINGLE POINT ENERGY     -1967.143557484755
FINAL SINGLE POINT ENERGY     -1967.143566525038
FINAL SINGLE POINT ENERGY     -1967.143570867148
FINAL SINGLE POINT ENERGY     -1967.143574071338
FINAL SINGLE POINT ENERGY     -1967.143576587725
Dispersion correction             ... done (  0.0 sec)
Dispersion correction           -0.034969857
FINAL SINGLE POINT ENERGY     -1967.143577848857
Dispersion correction             ... done (  0.0 sec)
Dispersion correction           -0.034967926
FINAL SINGLE POINT ENERGY     -1967.143590004254
Dispersion correction             ... done (  0.0 sec)
                    ***********************HURRAY********************

CARTESIAN COORDINATES (ANGSTROEM)
---------------------------------
  C     -2.988620    1.819329    1.605387
  C     -1.900138    2.666334    1.504382
  C     -0.727727    2.400106    2.235605
  C     -0.667116    1.266306    3.067942
  C     -1.760024    0.429263    3.163972
  C     -2.919247    0.701852    2.432981
  H     -3.889160    2.025652    1.043314
  H     -3.769756    0.037331    2.512291
  H     -1.939782    3.536898    0.862308
  H      0.225406    1.036279    3.634672
  H     -1.717588   -0.440597    3.805218
  C      0.352256    3.327667    2.083026
  N      1.528708    3.287384    2.748929
  H      1.679487    2.616131    3.494728
  H      2.065013    4.145101    2.833067
  H      0.169645    4.240862    1.528906
  H      1.767841    2.039377   -0.537746
  Cu     1.913260    2.499184    0.894056

 Multiplicity           Mult            ....    1
 Number of Electrons    NEL             ....   86
 Basis Dimension        Dim             ....  347

ORBITAL ENERGIES
----------------

  NO   OCC          E(Eh)            E(eV)
   0   2.0000    -323.072668     -8791.2542
   1   2.0000     -38.873705     -1057.8073
   2   2.0000     -34.078499      -927.3231
   3   2.0000     -34.077829      -927.3049
   4   2.0000     -34.076898      -927.2795
   5   2.0000     -14.445419      -393.0798
   6   2.0000     -10.324082      -280.9325
   7   2.0000     -10.245142      -278.7845
   8   2.0000     -10.229627      -278.3623
   9   2.0000     -10.228896      -278.3424
  10   2.0000     -10.223950      -278.2078
  11   2.0000     -10.217197      -278.0241
  12   2.0000     -10.215081      -277.9665
  13   2.0000      -4.359146      -118.6184
  14   2.0000      -2.858218       -77.7761
  15   2.0000      -2.853928       -77.6593
  16   2.0000      -2.842573       -77.3504
  17   2.0000      -1.034434       -28.1484
  18   2.0000      -0.911792       -24.8111
  19   2.0000      -0.826659       -22.4945
  20   2.0000      -0.797871       -21.7112
  21   2.0000      -0.737168       -20.0594
  22   2.0000      -0.665104       -18.0984
  23   2.0000      -0.655088       -17.8259
  24   2.0000      -0.618101       -16.8194
  25   2.0000      -0.586646       -15.9634
  26   2.0000      -0.538262       -14.6469
  27   2.0000      -0.512063       -13.9339
  28   2.0000      -0.498983       -13.5780
  29   2.0000      -0.485182       -13.2025
  30   2.0000      -0.469505       -12.7759
  31   2.0000      -0.464155       -12.6303
  32   2.0000      -0.421531       -11.4704
  33   2.0000      -0.401287       -10.9196
  34   2.0000      -0.389920       -10.6103
  35   2.0000      -0.370769       -10.0891
  36   2.0000      -0.341995        -9.3062
  37   2.0000      -0.339573        -9.2402
  38   2.0000      -0.335787        -9.1372
  39   2.0000      -0.334546        -9.1034
  40   2.0000      -0.317018        -8.6265
  41   2.0000      -0.305059        -8.3011
  42   2.0000      -0.272318        -7.4101
  43   0.0000      -0.151415        -4.1202
  44   0.0000      -0.056652        -1.5416
  45   0.0000      -0.032901        -0.8953
  46   0.0000      -0.027039        -0.7358
  47   0.0000       0.017769         0.4835

MULLIKEN ATOMIC CHARGES
-----------------------
   0 C :   -0.113266
   1 C :   -0.178933
   2 C :    0.197849
   3 C :   -0.186355
   4 C :   -0.122066
   5 C :   -0.088459
   6 H :    0.160618
   7 H :    0.165065
   8 H :    0.162511
   9 H :    0.146852
  10 H :    0.160534
  11 C :    0.008875
  12 N :   -0.178170
  13 H :    0.322967
  14 H :    0.330632
  15 H :    0.222265
  16 H :   -0.069587
  17 Cu:    0.058666
Sum of atomic charges:    1.0000000

LOEWDIN ATOMIC CHARGES
----------------------
   0 C :   -0.109043
   1 C :   -0.046905
   2 C :   -0.138255
   3 C :   -0.057856
   4 C :   -0.106767
   5 C :   -0.074770
   6 H :    0.159664
   7 H :    0.160281
   8 H :    0.165968
   9 H :    0.160783
  10 H :    0.159582
  11 C :   -0.106330
  12 N :    0.163657
  13 H :    0.222464
  14 H :    0.232106
  15 H :    0.191990
  16 H :   -0.199469
  17 Cu:    0.222900

  Mayer bond orders larger than 0.100000
B(  0-C ,  1-C ) :   1.4403 B(  0-C ,  5-C ) :   1.3728 B(  0-C ,  6-H ) :   0.9676
B(  1-C ,  2-C ) :   1.2740 B(  1-C ,  8-H ) :   0.9619 B(  2-C ,  3-C ) :   1.2331
B(  2-C , 11-C ) :   1.1510 B(  3-C ,  4-C ) :   1.4810 B(  3-C ,  9-H ) :   0.9629
B(  4-C ,  5-C ) :   1.3463 B(  4-C , 10-H ) :   0.9636 B(  5-C ,  7-H ) :   0.9592
B( 11-C , 12-N ) :   1.2060 B( 11-C , 15-H ) :   0.9170 B( 11-C , 17-Cu) :   0.4974
B( 12-N , 13-H ) :   0.8723 B( 12-N , 14-H ) :   0.8709 B( 12-N , 17-Cu) :   0.2926
B( 16-H , 17-Cu) :   0.9366

Dispersion correction           -0.034967405
FINAL SINGLE POINT ENERGY     -1967.143578997734

DIPOLE MOMENT
-------------

Method             : SCF
Type of density    : Electron Density
Multiplicity       :   1
Irrep              :   0
Energy             : -1967.1086115930575033 Eh
Basis              : AO
                                X                 Y                 Z
Electronic contribution:     15.796344718       3.534677372      -4.937993465
Nuclear contribution   :    -15.186943984      -2.078005150       7.485956698
                        -----------------------------------------
Total Dipole Moment    :      0.609400734       1.456672222       2.547963232
                        -----------------------------------------
Magnitude (a.u.)       :      2.997562318
Magnitude (Debye)      :      7.619197904

VIBRATIONAL FREQUENCIES
-----------------------

Scaling factor for frequencies =  1.000000000  (already applied!)

     0:       0.00 cm**-1
     1:       0.00 cm**-1
     2:       0.00 cm**-1
     3:       0.00 cm**-1
     4:       0.00 cm**-1
     5:       0.00 cm**-1
     6:      44.93 cm**-1
     7:      69.32 cm**-1
     8:     145.14 cm**-1
     9:     225.50 cm**-1
    10:     280.47 cm**-1
    11:     304.99 cm**-1
    12:     391.81 cm**-1
    13:     402.73 cm**-1
    14:     415.60 cm**-1
    15:     472.47 cm**-1
    16:     496.43 cm**-1
    17:     584.01 cm**-1
    18:     628.47 cm**-1
    19:     679.74 cm**-1
    20:     722.32 cm**-1
    21:     784.15 cm**-1
    22:     793.27 cm**-1
    23:     809.82 cm**-1
    24:     845.31 cm**-1
    25:     953.98 cm**-1
    26:     980.92 cm**-1
    27:     997.22 cm**-1
    28:    1018.49 cm**-1
    29:    1030.84 cm**-1
    30:    1046.46 cm**-1
    31:    1103.59 cm**-1
    32:    1137.99 cm**-1
    33:    1187.92 cm**-1
    34:    1210.32 cm**-1
    35:    1238.50 cm**-1
    36:    1312.26 cm**-1
    37:    1358.75 cm**-1
    38:    1377.48 cm**-1
    39:    1481.29 cm**-1
    40:    1515.76 cm**-1
    41:    1542.98 cm**-1
    42:    1608.70 cm**-1
    43:    1632.82 cm**-1
    44:    1646.95 cm**-1
    45:    1845.23 cm**-1
    46:    3184.93 cm**-1
    47:    3187.86 cm**-1
    48:    3191.70 cm**-1
    49:    3193.64 cm**-1
    50:    3204.14 cm**-1
    51:    3209.64 cm**-1
    52:    3487.75 cm**-1
    53:    3585.96 cm**-1

IR SPECTRUM
-----------

 Mode   freq       eps      Int      T**2         TX        TY        TZ
       cm**-1   L/(mol*cm) km/mol    a.u.
----------------------------------------------------------------------------
  6:     44.93   0.002411   12.18  0.016746  ( 0.097517 -0.082419  0.021054)
  7:     69.32   0.001485    7.51  0.006686  ( 0.063569  0.043487 -0.027459)
  8:    145.14   0.019562   98.86  0.042060  ( 0.185227 -0.021294 -0.085423)
  9:    225.50   0.005562   28.11  0.007697  ( 0.021207  0.081709 -0.023890)
 10:    280.47   0.064019  323.53  0.071230  (-0.224861  0.034655  0.139523)
 11:    304.99   0.028507  144.06  0.029168  ( 0.158321 -0.029982 -0.056604)
 12:    391.81   0.026104  131.92  0.020790  ( 0.134513  0.027138 -0.044273)
 13:    402.73   0.013056   65.98  0.010116  (-0.056640 -0.078611  0.026994)
 14:    415.60   0.016201   81.87  0.012165  (-0.038054  0.101660 -0.019541)
 15:    472.47   0.002952   14.92  0.001950  (-0.027266  0.014535  0.031542)
 16:    496.43   0.003577   18.07  0.002248  ( 0.010050 -0.007389  0.045747)
 17:    584.01   0.005615   28.38  0.003001  (-0.045411 -0.020234  0.023000)
 18:    628.47   0.000361    1.82  0.000179  ( 0.012555  0.000684  0.004588)
 19:    679.74   0.005572   28.16  0.002558  (-0.007666  0.026676  0.042279)
 20:    722.32   0.014045   70.98  0.006068  ( 0.021730 -0.057494 -0.047855)
 21:    784.15   0.060908  307.80  0.024239  (-0.140075  0.027822  0.061999)
 22:    793.27   0.009695   48.99  0.003814  ( 0.061710 -0.000630 -0.002311)
 23:    809.82   0.002350   11.88  0.000906  (-0.021222  0.007073  0.020128)
 24:    845.31   0.000172    0.87  0.000064  ( 0.007737 -0.000014  0.001923)
 25:    953.98   0.004974   25.14  0.001627  ( 0.034841  0.002954 -0.020114)
 26:    980.92   0.015363   77.64  0.004888  ( 0.062406  0.013526 -0.028462)
 27:    997.22   0.001329    6.71  0.000416  (-0.018062 -0.005936  0.007369)
 28:   1018.49   0.001301    6.57  0.000399  (-0.018728 -0.006812  0.001159)
 29:   1030.84   0.000149    0.75  0.000045  ( 0.005183 -0.000640 -0.004206)
 30:   1046.46   0.000311    1.57  0.000093  (-0.003604 -0.008480 -0.002810)
 31:   1103.59   0.002267   11.46  0.000641  ( 0.016438 -0.018569  0.005113)
 32:   1137.99   0.002996   15.14  0.000822  ( 0.000170  0.006609  0.027892)
 33:   1187.92   0.000377    1.90  0.000099  ( 0.005873 -0.007047  0.003854)
 34:   1210.32   0.018114   91.54  0.004670  ( 0.060915  0.025871 -0.017041)
 35:   1238.50   0.010252   51.81  0.002583  ( 0.043231  0.013174 -0.023249)
 36:   1312.26   0.036498  184.45  0.008679  ( 0.068898  0.053571  0.032598)
 37:   1358.75   0.014321   72.37  0.003289  ( 0.056321  0.008586  0.006573)
 38:   1377.48   0.004455   22.52  0.001009  ( 0.014579  0.025879 -0.011274)
 39:   1481.29   0.018020   91.06  0.003796  (-0.031647 -0.049222  0.019281)
 40:   1515.76   0.013537   68.41  0.002787  ( 0.046264  0.022655  0.011552)
 41:   1542.98   0.029860  150.90  0.006039  ( 0.070201  0.032647 -0.006722)
 42:   1608.70   0.001946    9.84  0.000378  (-0.017563 -0.008302  0.000416)
 43:   1632.82   0.039844  201.36  0.007615  ( 0.075839  0.039198 -0.018081)
 44:   1646.95   0.053212  268.91  0.010083  ( 0.080590  0.023977  0.054891)
 45:   1845.23   0.056669  286.38  0.009584  ( 0.024730 -0.023423 -0.091780)
 46:   3184.93   0.000333    1.68  0.000033  ( 0.001840 -0.005134 -0.001701)
 47:   3187.86   0.000717    3.62  0.000070  (-0.007091  0.004418  0.000599)
 48:   3191.70   0.002897   14.64  0.000283  (-0.008956  0.013314  0.005076)
 49:   3193.64   0.001071    5.41  0.000105  ( 0.009359 -0.004109 -0.000400)
 50:   3204.14   0.000822    4.15  0.000080  (-0.004904  0.004069 -0.006280)
 51:   3209.64   0.001168    5.90  0.000114  ( 0.009061  0.004768 -0.002957)
 52:   3487.75   0.054605  275.95  0.004886  (-0.044009 -0.031256 -0.044407)
 53:   3585.96   0.032260  163.03  0.002807  (-0.014298 -0.047098  0.019616)

--------------------------
THERMOCHEMISTRY AT 298.15K
--------------------------

Temperature         ...   298.15 K
Pressure            ...     1.00 atm
Total Mass          ...   170.71 AMU
Quasi RRHO          ...     True
Cut-Off Frequency   ...     1.00 cm^-1

Throughout the following assumptions are being made:
  (1) The electronic state is orbitally nondegenerate
  (2) There are no thermally accessible electronically excited states
  (3) Hindered rotations indicated by low frequency modes are not
      treated as such but are treated as vibrations and this may
      cause some error
  (4) All equations used are the standard statistical mechanics
      equations for an ideal gas
  (5) All vibrations are strictly harmonic

freq.      44.93  E(vib)   ...       0.53
freq.      69.32  E(vib)   ...       0.50
freq.     145.14  E(vib)   ...       0.41
freq.     225.50  E(vib)   ...       0.33
freq.     280.47  E(vib)   ...       0.28
freq.     304.99  E(vib)   ...       0.26
freq.     391.81  E(vib)   ...       0.20
freq.     402.73  E(vib)   ...       0.19
freq.     415.60  E(vib)   ...       0.18
freq.     472.47  E(vib)   ...       0.15
freq.     496.43  E(vib)   ...       0.14
freq.     584.01  E(vib)   ...       0.11
freq.     628.47  E(vib)   ...       0.09
freq.     679.74  E(vib)   ...       0.08
freq.     722.32  E(vib)   ...       0.07
freq.     784.15  E(vib)   ...       0.05
freq.     793.27  E(vib)   ...       0.05
freq.     809.82  E(vib)   ...       0.05
freq.     845.31  E(vib)   ...       0.04
freq.     953.98  E(vib)   ...       0.03
freq.     980.92  E(vib)   ...       0.02
freq.     997.22  E(vib)   ...       0.02
freq.    1018.49  E(vib)   ...       0.02
freq.    1030.84  E(vib)   ...       0.02
freq.    1046.46  E(vib)   ...       0.02
freq.    1103.59  E(vib)   ...       0.02
freq.    1137.99  E(vib)   ...       0.01
freq.    1187.92  E(vib)   ...       0.01
freq.    1210.32  E(vib)   ...       0.01
freq.    1238.50  E(vib)   ...       0.01
freq.    1312.26  E(vib)   ...       0.01
freq.    1358.75  E(vib)   ...       0.01
freq.    1377.48  E(vib)   ...       0.01
freq.    1481.29  E(vib)   ...       0.00
freq.    1515.76  E(vib)   ...       0.00
freq.    1542.98  E(vib)   ...       0.00
freq.    1608.70  E(vib)   ...       0.00
freq.    1632.82  E(vib)   ...       0.00
freq.    1646.95  E(vib)   ...       0.00
freq.    1845.23  E(vib)   ...       0.00
freq.    3184.93  E(vib)   ...       0.00
freq.    3187.86  E(vib)   ...       0.00
freq.    3191.70  E(vib)   ...       0.00
freq.    3193.64  E(vib)   ...       0.00
freq.    3204.14  E(vib)   ...       0.00
freq.    3209.64  E(vib)   ...       0.00
freq.    3487.75  E(vib)   ...       0.00
freq.    3585.96  E(vib)   ...       0.00

------------
INNER ENERGY
------------

The inner energy is: U= E(el) + E(ZPE) + E(vib) + E(rot) + E(trans)
    E(el)   - is the total energy from the electronic structure calculation
              = E(kin-el) + E(nuc-el) + E(el-el) + E(nuc-nuc)
    E(ZPE)  - the the zero temperature vibrational energy from the frequency calculation
    E(vib)  - the the finite temperature correction to E(ZPE) due to population
              of excited vibrational states
    E(rot)  - is the rotational thermal energy
    E(trans)- is the translational thermal energy

Summary of contributions to the inner energy U:
Electronic energy                ...  -1967.14357900 Eh
Zero point energy                ...      0.14254625 Eh      89.45 kcal/mol
Thermal vibrational correction   ...      0.00627274 Eh       3.94 kcal/mol
Thermal rotational correction    ...      0.00141627 Eh       0.89 kcal/mol
Thermal translational correction ...      0.00141627 Eh       0.89 kcal/mol
-----------------------------------------------------------------------
Total thermal energy                  -1966.99192746 Eh

Summary of corrections to the electronic energy:
(perhaps to be used in another calculation)
Total thermal correction                  0.00910528 Eh       5.71 kcal/mol
Non-thermal (ZPE) correction              0.14254625 Eh      89.45 kcal/mol
-----------------------------------------------------------------------
Total correction                          0.15165154 Eh      95.16 kcal/mol

--------
ENTHALPY
--------

The enthalpy is H = U + kB*T
                kB is Boltzmann's constant
Total thermal energy              ...  -1966.99192746 Eh
Thermal Enthalpy correction       ...      0.00094421 Eh       0.59 kcal/mol
-----------------------------------------------------------------------
Total Enthalpy                    ...  -1966.99098325 Eh

Note: Only C1 symmetry has been detected, increase convergence thresholds
      if your molecule has a higher symmetry. Symmetry factor of 1.0 is
      used for the rotational entropy correction.

Note: Rotational entropy computed according to Herzberg
Infrared and Raman Spectra, Chapter V,1, Van Nostrand Reinhold, 1945
Point Group:  C1, Symmetry Number:   1
Rotational constants in cm-1:     0.095846     0.021398     0.020629

Vibrational entropy computed according to the QRRHO of S. Grimme
Chem.Eur.J. 2012 18 9955 using a reference frequency of 100.0 cm-1

-------
ENTROPY
-------

The entropy contributions are T*S = T*(S(el)+S(vib)+S(rot)+S(trans))
     S(el)   - electronic entropy
     S(vib)  - vibrational entropy
     S(rot)  - rotational entropy
     S(trans)- translational entropy
The entropies will be listed as multiplied by the temperature to get
units of energy

Electronic entropy                ...      0.00000000 Eh      0.00 kcal/mol
Vibrational entropy               ...      0.01050594 Eh      6.59 kcal/mol
Rotational entropy                ...      0.01426501 Eh      8.95 kcal/mol
Translational entropy             ...      0.01962863 Eh     12.32 kcal/mol
-----------------------------------------------------------------------
Final entropy term                ...      0.04439957 Eh     27.86 kcal/mol

In case the symmetry of your molecule has not been determined correctly
or in case you have a reason to use a different symmetry number we print
out the resulting rotational entropy values for sn=1,12:

 non-linear molecules -----------------------------------
|  sn= 1 | S(rot)=       0.01426501 Eh      8.95 kcal/mol|
|  sn= 2 | S(rot)=       0.01361055 Eh      8.54 kcal/mol|
|  sn= 3 | S(rot)=       0.01322772 Eh      8.30 kcal/mol|
|  sn= 4 | S(rot)=       0.01295610 Eh      8.13 kcal/mol|
|  sn= 5 | S(rot)=       0.01274541 Eh      8.00 kcal/mol|
|  sn= 6 | S(rot)=       0.01257326 Eh      7.89 kcal/mol|
|  sn= 7 | S(rot)=       0.01242772 Eh      7.80 kcal/mol|
|  sn= 8 | S(rot)=       0.01230164 Eh      7.72 kcal/mol|
|  sn= 9 | S(rot)=       0.01219043 Eh      7.65 kcal/mol|
|  sn=10 | S(rot)=       0.01209095 Eh      7.59 kcal/mol|
|  sn=11 | S(rot)=       0.01200096 Eh      7.53 kcal/mol|
|  sn=12 | S(rot)=       0.01191881 Eh      7.48 kcal/mol|

                             ****ORCA TERMINATED NORMALLY****
TOTAL RUN TIME: 0 days 0 hours 17 minutes 56 seconds 903 msec
