                         Program Version 5.0.3 -  RELEASE  -
|  1> !B3LYP DEF2-TZVP D3BJ
|  2> !OPT FREQ TIGHTOPT TightSCF defgrid2
|  3> %SCF
|  4>     MaxIter 2000       # Here setting MaxIter to a very high number. Intended for systems that require sometimes 1000 iterations before converging (very rare).
|  5>     DIISMaxEq 5        # Default value is 5. A value of 15-40 necessary for difficult systems.
|  6>     directresetfreq 15 # Default value is 15. A value of 1 (very expensive) is sometimes required. A value between 1 and 15 may be more cost-effective.
|  7> END
|  8> %CPCM EPSILON 6.02 REFRAC 1.3723 END
|  9> %PAL NPROCS 32 END
| 10> %maxcore 2000 # This indicates you want ORCA to use only 2GB per core maximum, so ORCA will use only 2GB*32=64GB of memory in total.
| 11> * xyzfile 1 1 product.xyz
| 12>
| 13>                          ****END OF INPUT****
 Total Charge           Charge          ....    1
 Multiplicity           Mult            ....    1
 Number of Electrons    NEL             ....   86
Dispersion correction           -0.034866814
FINAL SINGLE POINT ENERGY     -1967.060275132297
Dispersion correction            ... done
Dispersion correction           -0.035235429
FINAL SINGLE POINT ENERGY     -1967.075506030574
Dispersion correction            ... done
Dispersion correction           -0.035514148
FINAL SINGLE POINT ENERGY     -1967.087032894865
Dispersion correction            ... done
FINAL SINGLE POINT ENERGY     -1967.095802138282
FINAL SINGLE POINT ENERGY     -1967.102844035044
FINAL SINGLE POINT ENERGY     -1967.108943809623
FINAL SINGLE POINT ENERGY     -1967.114733120448
FINAL SINGLE POINT ENERGY     -1967.120384263446
FINAL SINGLE POINT ENERGY     -1967.125910573856
FINAL SINGLE POINT ENERGY     -1967.130942297334
FINAL SINGLE POINT ENERGY     -1967.143275441655
FINAL SINGLE POINT ENERGY     -1967.143299983126
FINAL SINGLE POINT ENERGY     -1967.143321718795
FINAL SINGLE POINT ENERGY     -1967.143338011373
FINAL SINGLE POINT ENERGY     -1967.143351607580
FINAL SINGLE POINT ENERGY     -1967.143358942127
FINAL SINGLE POINT ENERGY     -1967.143362577828
Dispersion correction           -0.034981032
FINAL SINGLE POINT ENERGY     -1967.143364225755
Dispersion correction            ... done
Dispersion correction           -0.034982750
FINAL SINGLE POINT ENERGY     -1967.143364840910
Dispersion correction            ... done
                    ***********************HURRAY********************

CARTESIAN COORDINATES (ANGSTROEM)
---------------------------------
  C     -2.990957    1.813887    1.613458
  C     -1.907360    2.667010    1.510144
  C     -0.730234    2.403506    2.234471
  C     -0.659696    1.266548    3.061268
  C     -1.747098    0.422571    3.158609
  C     -2.911274    0.692362    2.434639
  H     -3.895607    2.017813    1.057077
  H     -3.757444    0.022273    2.514110
  H     -1.954891    3.540233    0.872198
  H      0.237030    1.038069    3.622086
  H     -1.696077   -0.450664    3.794681
  C      0.347170    3.333412    2.080250
  N      1.522959    3.296015    2.748562
  H      1.672737    2.625655    3.495355
  H      2.057217    4.155056    2.833712
  H      0.163780    4.245652    1.524520
  H      1.761279    2.043288   -0.536808
  Cu     1.910925    2.501772    0.894708

 Multiplicity           Mult            ....    1
 Number of Electrons    NEL             ....   86
 Basis Dimension        Dim             ....  347

ORBITAL ENERGIES
----------------

  NO   OCC          E(Eh)            E(eV)
   0   2.0000    -323.072994     -8791.2631
   1   2.0000     -38.874013     -1057.8157
   2   2.0000     -34.078807      -927.3315
   3   2.0000     -34.078138      -927.3133
   4   2.0000     -34.077210      -927.2880
   5   2.0000     -14.445582      -393.0843
   6   2.0000     -10.324420      -280.9417
   7   2.0000     -10.245383      -278.7910
   8   2.0000     -10.229867      -278.3688
   9   2.0000     -10.229195      -278.3506
  10   2.0000     -10.224209      -278.2149
  11   2.0000     -10.217451      -278.0310
  12   2.0000     -10.215362      -277.9741
  13   2.0000      -4.359456      -118.6268
  14   2.0000      -2.858504       -77.7839
  15   2.0000      -2.854245       -77.6680
  16   2.0000      -2.842901       -77.3593
  17   2.0000      -1.034532       -28.1511
  18   2.0000      -0.912110       -24.8198
  19   2.0000      -0.826950       -22.5025
  20   2.0000      -0.798159       -21.7190
  21   2.0000      -0.737420       -20.0662
  22   2.0000      -0.665472       -18.1084
  23   2.0000      -0.655239       -17.8300
  24   2.0000      -0.618284       -16.8244
  25   2.0000      -0.586866       -15.9694
  26   2.0000      -0.538529       -14.6541
  27   2.0000      -0.512391       -13.9429
  28   2.0000      -0.499057       -13.5800
  29   2.0000      -0.485638       -13.2149
  30   2.0000      -0.469740       -12.7823
  31   2.0000      -0.464511       -12.6400
  32   2.0000      -0.421779       -11.4772
  33   2.0000      -0.401525       -10.9261
  34   2.0000      -0.390203       -10.6180
  35   2.0000      -0.371113       -10.0985
  36   2.0000      -0.342356        -9.3160
  37   2.0000      -0.339922        -9.2497
  38   2.0000      -0.336088        -9.1454
  39   2.0000      -0.334808        -9.1106
  40   2.0000      -0.317306        -8.6343
  41   2.0000      -0.305309        -8.3079
  42   2.0000      -0.272565        -7.4169
  43   0.0000      -0.151792        -4.1305
  44   0.0000      -0.056941        -1.5495
  45   0.0000      -0.033116        -0.9011
  46   0.0000      -0.027537        -0.7493
  47   0.0000       0.017429         0.4743

MULLIKEN ATOMIC CHARGES
-----------------------
   0 C :   -0.112906
   1 C :   -0.177972
   2 C :    0.193990
   3 C :   -0.185235
   4 C :   -0.122537
   5 C :   -0.088260
   6 H :    0.160891
   7 H :    0.165276
   8 H :    0.162936
   9 H :    0.147142
  10 H :    0.160695
  11 C :    0.008604
  12 N :   -0.182224
  13 H :    0.322985
  14 H :    0.331210
  15 H :    0.222362
  16 H :   -0.071285
  17 Cu:    0.064328
Sum of atomic charges:    1.0000000

LOEWDIN ATOMIC CHARGES
----------------------
   0 C :   -0.108910
   1 C :   -0.046833
   2 C :   -0.138988
   3 C :   -0.057982
   4 C :   -0.106572
   5 C :   -0.074613
   6 H :    0.159711
   7 H :    0.160355
   8 H :    0.166035
   9 H :    0.160896
  10 H :    0.159652
  11 C :   -0.106593
  12 N :    0.162712
  13 H :    0.222379
  14 H :    0.232003
  15 H :    0.191925
  16 H :   -0.198797
  17 Cu:    0.223619

  Mayer bond orders larger than 0.100000
B(  0-C ,  1-C ) :   1.4403 B(  0-C ,  5-C ) :   1.3732 B(  0-C ,  6-H ) :   0.9671
B(  1-C ,  2-C ) :   1.2757 B(  1-C ,  8-H ) :   0.9615 B(  2-C ,  3-C ) :   1.2330
B(  2-C , 11-C ) :   1.1529 B(  3-C ,  4-C ) :   1.4816 B(  3-C ,  9-H ) :   0.9622
B(  4-C ,  5-C ) :   1.3467 B(  4-C , 10-H ) :   0.9633 B(  5-C ,  7-H ) :   0.9588
B( 11-C , 12-N ) :   1.2053 B( 11-C , 15-H ) :   0.9164 B( 11-C , 17-Cu) :   0.4974
B( 12-N , 13-H ) :   0.8723 B( 12-N , 14-H ) :   0.8707 B( 12-N , 17-Cu) :   0.2918
B( 16-H , 17-Cu) :   0.9362

Dispersion correction           -0.034982719
FINAL SINGLE POINT ENERGY     -1967.143364946945

DIPOLE MOMENT
-------------
                                X             Y             Z
Electronic contribution:     15.78350       3.54740      -4.94417
Nuclear contribution   :    -15.17589      -2.09387       7.48214
                        -----------------------------------------
Total Dipole Moment    :      0.60762       1.45352       2.53797
                        -----------------------------------------
Magnitude (a.u.)       :      2.98717
Magnitude (Debye)      :      7.59279

Dispersion correction in the Hessian             ... done   (      0.4 sec)

VIBRATIONAL FREQUENCIES
-----------------------

Scaling factor for frequencies =  1.000000000  (already applied!)

   0:         0.00 cm**-1
   1:         0.00 cm**-1
   2:         0.00 cm**-1
   3:         0.00 cm**-1
   4:         0.00 cm**-1
   5:         0.00 cm**-1
   6:        52.20 cm**-1
   7:        71.30 cm**-1
   8:       146.78 cm**-1
   9:       226.53 cm**-1
  10:       282.60 cm**-1
  11:       302.99 cm**-1
  12:       392.29 cm**-1
  13:       402.58 cm**-1
  14:       414.78 cm**-1
  15:       473.15 cm**-1
  16:       495.75 cm**-1
  17:       585.93 cm**-1
  18:       628.71 cm**-1
  19:       678.81 cm**-1
  20:       709.76 cm**-1
  21:       778.78 cm**-1
  22:       797.94 cm**-1
  23:       810.91 cm**-1
  24:       844.28 cm**-1
  25:       953.22 cm**-1
  26:       978.70 cm**-1
  27:       996.50 cm**-1
  28:      1019.06 cm**-1
  29:      1030.63 cm**-1
  30:      1046.65 cm**-1
  31:      1102.99 cm**-1
  32:      1137.60 cm**-1
  33:      1187.17 cm**-1
  34:      1210.13 cm**-1
  35:      1237.46 cm**-1
  36:      1309.92 cm**-1
  37:      1358.89 cm**-1
  38:      1377.61 cm**-1
  39:      1480.76 cm**-1
  40:      1514.47 cm**-1
  41:      1543.18 cm**-1
  42:      1608.95 cm**-1
  43:      1633.11 cm**-1
  44:      1647.22 cm**-1
  45:      1845.64 cm**-1
  46:      3184.30 cm**-1
  47:      3186.78 cm**-1
  48:      3189.57 cm**-1
  49:      3192.88 cm**-1
  50:      3203.72 cm**-1
  51:      3209.16 cm**-1
  52:      3487.08 cm**-1
  53:      3585.59 cm**-1

IR SPECTRUM
-----------

 Mode   freq       eps      Int      T**2         TX        TY        TZ
       cm**-1   L/(mol*cm) km/mol    a.u.
----------------------------------------------------------------------------
  6:     52.20   0.002182   11.03  0.013042  ( 0.086884 -0.071137  0.020809)
  7:     71.30   0.001227    6.20  0.005369  ( 0.051286  0.046715 -0.023584)
  8:    146.78   0.019603   99.06  0.041675  ( 0.184645 -0.019084 -0.084953)
  9:    226.53   0.005677   28.69  0.007821  ( 0.023343  0.081753 -0.024344)
 10:    282.60   0.051389  259.70  0.056747  (-0.197516  0.028811  0.130016)
 11:    302.99   0.041780  211.14  0.043031  ( 0.189468 -0.038080 -0.075381)
 12:    392.29   0.025755  130.16  0.020488  ( 0.133048  0.029716 -0.043623)
 13:    402.58   0.012304   62.18  0.009538  (-0.053012 -0.077818  0.025914)
 14:    414.78   0.015988   80.80  0.012029  (-0.039482  0.100607 -0.018656)
 15:    473.15   0.002909   14.70  0.001918  (-0.025351  0.017008  0.031409)
 16:    495.75   0.003925   19.84  0.002471  ( 0.003429 -0.008407  0.048872)
 17:    585.93   0.005621   28.40  0.002993  (-0.044982 -0.021124  0.022888)
 18:    628.71   0.000342    1.73  0.000170  ( 0.012097  0.001217  0.004705)
 19:    678.81   0.006036   30.50  0.002775  (-0.018782  0.023022  0.043499)
 20:    709.76   0.009422   47.62  0.004143  ( 0.017339  0.051436  0.034589)
 21:    778.78   0.058326  294.75  0.023372  (-0.130901  0.037236  0.069644)
 22:    797.94   0.018479   93.38  0.007227  ( 0.083469 -0.008792 -0.013509)
 23:    810.91   0.001036    5.24  0.000399  (-0.010694  0.005530  0.015930)
 24:    844.28   0.000259    1.31  0.000096  ( 0.009736 -0.000575  0.000819)
 25:    953.22   0.004662   23.56  0.001526  ( 0.033091  0.003017 -0.020546)
 26:    978.70   0.013553   68.49  0.004322  (-0.058401 -0.012414  0.027508)
 27:    996.50   0.001098    5.55  0.000344  (-0.016166 -0.005823  0.006968)
 28:   1019.06   0.001404    7.09  0.000430  (-0.019444 -0.007104  0.001162)
 29:   1030.63   0.000122    0.62  0.000037  ( 0.004558 -0.000899 -0.003915)
 30:   1046.65   0.000323    1.63  0.000096  (-0.004360 -0.008357 -0.002740)
 31:   1102.99   0.002117   10.70  0.000599  ( 0.015213 -0.018510  0.004985)
 32:   1137.60   0.002896   14.64  0.000794  ( 0.001218  0.006712  0.027348)
 33:   1187.17   0.000376    1.90  0.000099  ( 0.005286 -0.007395  0.004037)
 34:   1210.13   0.018369   92.83  0.004737  ( 0.061315  0.025983 -0.017391)
 35:   1237.46   0.010220   51.65  0.002577  ( 0.042734  0.012977 -0.024140)
 36:   1309.92   0.035977  181.81  0.008571  ( 0.068384  0.053302  0.032456)
 37:   1358.89   0.013777   69.62  0.003164  ( 0.055279  0.008232  0.006350)
 38:   1377.61   0.004288   21.67  0.000971  ( 0.013677  0.025413 -0.011765)
 39:   1480.76   0.018795   94.98  0.003961  (-0.032937 -0.050153  0.018993)
 40:   1514.47   0.014532   73.44  0.002994  ( 0.048184  0.023143  0.011704)
 41:   1543.18   0.028894  146.02  0.005843  ( 0.069374  0.031496 -0.006182)
 42:   1608.95   0.002138   10.80  0.000415  (-0.018323 -0.008859  0.000655)
 43:   1633.11   0.037645  190.24  0.007193  (-0.073013 -0.038264  0.019956)
 44:   1647.22   0.053640  271.08  0.010162  ( 0.081461  0.024527  0.054080)
 45:   1845.64   0.056812  287.11  0.009606  ( 0.024847 -0.023342 -0.091889)
 46:   3184.30   0.000861    4.35  0.000084  ( 0.004282 -0.007767 -0.002389)
 47:   3186.78   0.001877    9.48  0.000184  (-0.010433  0.008390  0.002128)
 48:   3189.57   0.002027   10.24  0.000198  (-0.007523  0.011218  0.003989)
 49:   3192.88   0.000361    1.82  0.000035  ( 0.005838 -0.000404  0.001007)
 50:   3203.72   0.000685    3.46  0.000067  (-0.004547  0.003690 -0.005693)
 51:   3209.16   0.001032    5.22  0.000100  ( 0.008511  0.004456 -0.002839)
 52:   3487.08   0.055649  281.22  0.004980  (-0.044199 -0.032474 -0.044407)
 53:   3585.59   0.032248  162.97  0.002807  (-0.013893 -0.046986  0.020147)

--------------------------
THERMOCHEMISTRY AT 298.15K
--------------------------

Temperature         ... 298.15 K
Pressure            ... 1.00 atm
Total Mass          ... 170.71 AMU

Throughout the following assumptions are being made:
  (1) The electronic state is orbitally nondegenerate
  (2) There are no thermally accessible electronically excited states
  (3) Hindered rotations indicated by low frequency modes are not
      treated as such but are treated as vibrations and this may
      cause some error
  (4) All equations used are the standard statistical mechanics
      equations for an ideal gas
  (5) All vibrations are strictly harmonic

freq.      52.20  E(vib)   ...       0.52
freq.      71.30  E(vib)   ...       0.50
freq.     146.78  E(vib)   ...       0.41
freq.     226.53  E(vib)   ...       0.33
freq.     282.60  E(vib)   ...       0.28
freq.     302.99  E(vib)   ...       0.26
freq.     392.29  E(vib)   ...       0.20
freq.     402.58  E(vib)   ...       0.19
freq.     414.78  E(vib)   ...       0.19
freq.     473.15  E(vib)   ...       0.15
freq.     495.75  E(vib)   ...       0.14
freq.     585.93  E(vib)   ...       0.11
freq.     628.71  E(vib)   ...       0.09
freq.     678.81  E(vib)   ...       0.08
freq.     709.76  E(vib)   ...       0.07
freq.     778.78  E(vib)   ...       0.05
freq.     797.94  E(vib)   ...       0.05
freq.     810.91  E(vib)   ...       0.05
freq.     844.28  E(vib)   ...       0.04
freq.     953.22  E(vib)   ...       0.03
freq.     978.70  E(vib)   ...       0.03
freq.     996.50  E(vib)   ...       0.02
freq.    1019.06  E(vib)   ...       0.02
freq.    1030.63  E(vib)   ...       0.02
freq.    1046.65  E(vib)   ...       0.02
freq.    1102.99  E(vib)   ...       0.02
freq.    1137.60  E(vib)   ...       0.01
freq.    1187.17  E(vib)   ...       0.01
freq.    1210.13  E(vib)   ...       0.01
freq.    1237.46  E(vib)   ...       0.01
freq.    1309.92  E(vib)   ...       0.01
freq.    1358.89  E(vib)   ...       0.01
freq.    1377.61  E(vib)   ...       0.01
freq.    1480.76  E(vib)   ...       0.00
freq.    1514.47  E(vib)   ...       0.00
freq.    1543.18  E(vib)   ...       0.00
freq.    1608.95  E(vib)   ...       0.00
freq.    1633.11  E(vib)   ...       0.00
freq.    1647.22  E(vib)   ...       0.00
freq.    1845.64  E(vib)   ...       0.00
freq.    3184.30  E(vib)   ...       0.00
freq.    3186.78  E(vib)   ...       0.00
freq.    3189.57  E(vib)   ...       0.00
freq.    3192.88  E(vib)   ...       0.00
freq.    3203.72  E(vib)   ...       0.00
freq.    3209.16  E(vib)   ...       0.00
freq.    3487.08  E(vib)   ...       0.00
freq.    3585.59  E(vib)   ...       0.00

------------
INNER ENERGY
------------

The inner energy is: U= E(el) + E(ZPE) + E(vib) + E(rot) + E(trans)
    E(el)   - is the total energy from the electronic structure calculation
              = E(kin-el) + E(nuc-el) + E(el-el) + E(nuc-nuc)
    E(ZPE)  - the the zero temperature vibrational energy from the frequency calculation
    E(vib)  - the the finite temperature correction to E(ZPE) due to population
              of excited vibrational states
    E(rot)  - is the rotational thermal energy
    E(trans)- is the translational thermal energy

Summary of contributions to the inner energy U:
Electronic energy                ...  -1967.14336495 Eh
Zero point energy                ...      0.14251086 Eh      89.43 kcal/mol
Thermal vibrational correction   ...      0.00625418 Eh       3.92 kcal/mol
Thermal rotational correction    ...      0.00141627 Eh       0.89 kcal/mol
Thermal translational correction ...      0.00141627 Eh       0.89 kcal/mol
-----------------------------------------------------------------------
Total thermal energy                  -1966.99176736 Eh

Summary of corrections to the electronic energy:
(perhaps to be used in another calculation)
Total thermal correction                  0.00908672 Eh       5.70 kcal/mol
Non-thermal (ZPE) correction              0.14251086 Eh      89.43 kcal/mol
-----------------------------------------------------------------------
Total correction                          0.15159758 Eh      95.13 kcal/mol

--------
ENTHALPY
--------

The enthalpy is H = U + kB*T
                kB is Boltzmann's constant
Total free energy                 ...  -1966.99176736 Eh
Thermal Enthalpy correction       ...      0.00094421 Eh       0.59 kcal/mol
-----------------------------------------------------------------------
Total Enthalpy                    ...  -1966.99082315 Eh

Note: Only C1 symmetry has been detected, increase convergence thresholds
      if your molecule has a higher symmetry. Symmetry factor of 1.0 is
      used for the rotational entropy correction.

Note: Rotational entropy computed according to Herzberg
Infrared and Raman Spectra, Chapter V,1, Van Nostrand Reinhold, 1945
Point Group:  C1, Symmetry Number:   1
Rotational constants in cm-1:     0.095708     0.021412     0.020669

Vibrational entropy computed according to the QRRHO of S. Grimme
Chem.Eur.J. 2012 18 9955

-------
ENTROPY
-------

The entropy contributions are T*S = T*(S(el)+S(vib)+S(rot)+S(trans))
     S(el)   - electronic entropy
     S(vib)  - vibrational entropy
     S(rot)  - rotational entropy
     S(trans)- translational entropy
The entropies will be listed as multiplied by the temperature to get
units of energy

Electronic entropy                ...      0.00000000 Eh      0.00 kcal/mol
Vibrational entropy               ...      0.01043649 Eh      6.55 kcal/mol
Rotational entropy                ...      0.01426447 Eh      8.95 kcal/mol
Translational entropy             ...      0.01962863 Eh     12.32 kcal/mol
-----------------------------------------------------------------------
Final entropy term                ...      0.04432958 Eh     27.82 kcal/mol

In case the symmetry of your molecule has not been determined correctly
or in case you have a reason to use a different symmetry number we print
out the resulting rotational entropy values for sn=1,12 :
 --------------------------------------------------------
|  sn= 1 | S(rot)=       0.01426447 Eh      8.95 kcal/mol|
|  sn= 2 | S(rot)=       0.01361001 Eh      8.54 kcal/mol|
|  sn= 3 | S(rot)=       0.01322718 Eh      8.30 kcal/mol|
|  sn= 4 | S(rot)=       0.01295555 Eh      8.13 kcal/mol|
|  sn= 5 | S(rot)=       0.01274487 Eh      8.00 kcal/mol|
|  sn= 6 | S(rot)=       0.01257272 Eh      7.89 kcal/mol|
|  sn= 7 | S(rot)=       0.01242718 Eh      7.80 kcal/mol|
|  sn= 8 | S(rot)=       0.01230110 Eh      7.72 kcal/mol|
|  sn= 9 | S(rot)=       0.01218989 Eh      7.65 kcal/mol|
|  sn=10 | S(rot)=       0.01209041 Eh      7.59 kcal/mol|
|  sn=11 | S(rot)=       0.01200042 Eh      7.53 kcal/mol|
|  sn=12 | S(rot)=       0.01191827 Eh      7.48 kcal/mol|
 --------------------------------------------------------

                             ****ORCA TERMINATED NORMALLY****
TOTAL RUN TIME: 0 days 3 hours 13 minutes 36 seconds 700 msec
