                         Program Version 6.1.0-f.0  -   RELEASE   -
|  1> !B3LYP DEF2-TZVP D3BJ
|  2> !OPT FREQ TightOPT TightSCF defgrid2
|  3> %SCF
|  4>     MaxIter 2000       # Here setting MaxIter to a very high number. Intended for systems that require sometimes 1000 iterations before converging (very rare).
|  5>     DIISMaxEq 5        # Default value is 5. A value of 15-40 necessary for difficult systems.
|  6>     directresetfreq 15 # Default value is 15. A value of 1 (very expensive) is sometimes required. A value between 1 and 15 may be more cost-effective.
|  7> END
|  8> %CPCM EPSILON 6.02 REFRAC 1.3723 END
|  9> %PAL NPROCS 32 END
| 10> %maxcore 2000 # This indicates you want ORCA to use only 2GB per core maximum, so ORCA will use only 2GB*32=64GB of memory in total.
| 11> * xyzfile 1 1 orca_IRC_B.xyz
| 12>
| 13>
| 14>                          ****END OF INPUT****
 Total Charge           Charge          ....    1
 Multiplicity           Mult            ....    1
 Number of Electrons    NEL             ....   86
Dispersion correction           -0.034199392
FINAL SINGLE POINT ENERGY     -1967.185852723740
Dispersion correction             ... done (  0.0 sec)
Dispersion correction           -0.034399315
FINAL SINGLE POINT ENERGY     -1967.186855946177
Dispersion correction             ... done (  0.0 sec)
Dispersion correction           -0.034727575
FINAL SINGLE POINT ENERGY     -1967.188005971942
Dispersion correction             ... done (  0.0 sec)
FINAL SINGLE POINT ENERGY     -1967.188601751474
FINAL SINGLE POINT ENERGY     -1967.189320514529
FINAL SINGLE POINT ENERGY     -1967.190286365059
FINAL SINGLE POINT ENERGY     -1967.191356368779
FINAL SINGLE POINT ENERGY     -1967.192426851119
FINAL SINGLE POINT ENERGY     -1967.193177287551
FINAL SINGLE POINT ENERGY     -1967.193887886114
FINAL SINGLE POINT ENERGY     -1967.196117752153
FINAL SINGLE POINT ENERGY     -1967.196233580003
FINAL SINGLE POINT ENERGY     -1967.196256927720
FINAL SINGLE POINT ENERGY     -1967.196298407981
FINAL SINGLE POINT ENERGY     -1967.196296395090
FINAL SINGLE POINT ENERGY     -1967.196302244187
FINAL SINGLE POINT ENERGY     -1967.196311265047
Dispersion correction             ... done (  0.0 sec)
Dispersion correction           -0.037603160
FINAL SINGLE POINT ENERGY     -1967.196323839587
Dispersion correction             ... done (  0.0 sec)
Dispersion correction           -0.037601736
FINAL SINGLE POINT ENERGY     -1967.196331980783
Dispersion correction             ... done (  0.0 sec)
                    ***********************HURRAY********************

CARTESIAN COORDINATES (ANGSTROEM)
---------------------------------
  C     -2.941621    2.040300    2.237987
  C     -1.868092    2.767376    1.729412
  C     -0.597580    2.202397    1.676970
  C     -0.417144    0.885763    2.131105
  C     -1.489929    0.163418    2.648844
  C     -2.753282    0.744808    2.707248
  H     -3.925456    2.490392    2.273895
  H     -3.589484    0.185135    3.105680
  H     -2.017551    3.781414    1.378732
  H      0.552538    0.406662    2.021936
  H     -1.341428   -0.854400    2.985702
  C      0.605728    3.010611    1.268032
  N      1.295385    3.497788    2.504514
  H      0.856805    4.357194    2.826320
  H      2.265909    3.725632    2.308052
  H      0.322210    3.850284    0.633114
  H      1.317220    2.388777    0.726606
  Cu     0.988837    2.097412    3.899001

 Multiplicity           Mult            ....    1
 Number of Electrons    NEL             ....   86
 Basis Dimension        Dim             ....  347

ORBITAL ENERGIES
----------------

  NO   OCC          E(Eh)            E(eV)
   0   2.0000    -323.020904     -8789.8457
   1   2.0000     -38.809179     -1056.0515
   2   2.0000     -34.014149      -925.5721
   3   2.0000     -34.014046      -925.5692
   4   2.0000     -34.013767      -925.5617
   5   2.0000     -14.381912      -391.3517
   6   2.0000     -10.238708      -278.6094
   7   2.0000     -10.217510      -278.0326
   8   2.0000     -10.209604      -277.8174
   9   2.0000     -10.204996      -277.6921
  10   2.0000     -10.202520      -277.6247
  11   2.0000     -10.201965      -277.6096
  12   2.0000     -10.200063      -277.5578
  13   2.0000      -4.303235      -117.0970
  14   2.0000      -2.798418       -76.1488
  15   2.0000      -2.798206       -76.1431
  16   2.0000      -2.796957       -76.1091
  17   2.0000      -0.950437       -25.8627
  18   2.0000      -0.888435       -24.1755
  19   2.0000      -0.796384       -21.6707
  20   2.0000      -0.778492       -21.1839
  21   2.0000      -0.706154       -19.2154
  22   2.0000      -0.639987       -17.4149
  23   2.0000      -0.615904       -16.7596
  24   2.0000      -0.557980       -15.1834
  25   2.0000      -0.539907       -14.6916
  26   2.0000      -0.517373       -14.0784
  27   2.0000      -0.485735       -13.2175
  28   2.0000      -0.482499       -13.1295
  29   2.0000      -0.452531       -12.3140
  30   2.0000      -0.449159       -12.2222
  31   2.0000      -0.422749       -11.5036
  32   2.0000      -0.402855       -10.9622
  33   2.0000      -0.385864       -10.4999
  34   2.0000      -0.372266       -10.1299
  35   2.0000      -0.363007        -9.8779
  36   2.0000      -0.307575        -8.3695
  37   2.0000      -0.296057        -8.0561
  38   2.0000      -0.292010        -7.9460
  39   2.0000      -0.291434        -7.9303
  40   2.0000      -0.285822        -7.7776
  41   2.0000      -0.283610        -7.7174
  42   2.0000      -0.257260        -7.0004
  43   0.0000      -0.089958        -2.4479
  44   0.0000      -0.053169        -1.4468
  45   0.0000      -0.044507        -1.2111
  46   0.0000       0.015101         0.4109
  47   0.0000       0.026187         0.7126

MULLIKEN ATOMIC CHARGES
-----------------------
   0 C :   -0.102837
   1 C :   -0.226808
   2 C :    0.229188
   3 C :   -0.238391
   4 C :   -0.112140
   5 C :   -0.145055
   6 H :    0.149039
   7 H :    0.149212
   8 H :    0.142852
   9 H :    0.152207
  10 H :    0.151043
  11 C :   -0.136583
  12 N :   -0.435445
  13 H :    0.275093
  14 H :    0.276451
  15 H :    0.149096
  16 H :    0.154193
  17 Cu:    0.568885
Sum of atomic charges:    1.0000000

LOEWDIN ATOMIC CHARGES
----------------------
   0 C :   -0.119184
   1 C :   -0.098382
   2 C :   -0.143351
   3 C :   -0.108933
   4 C :   -0.115504
   5 C :   -0.127068
   6 H :    0.153513
   7 H :    0.152865
   8 H :    0.156180
   9 H :    0.174889
  10 H :    0.154478
  11 C :   -0.212588
  12 N :   -0.010630
  13 H :    0.195953
  14 H :    0.192874
  15 H :    0.142472
  16 H :    0.151805
  17 Cu:    0.460612

  Mayer bond orders larger than 0.100000
B(  0-C ,  1-C ) :   1.3865 B(  0-C ,  5-C ) :   1.3893 B(  0-C ,  6-H ) :   0.9723
B(  1-C ,  2-C ) :   1.4003 B(  1-C ,  8-H ) :   0.9767 B(  2-C ,  3-C ) :   1.2340
B(  2-C , 11-C ) :   0.9307 B(  2-C , 12-N ) :  -0.1161 B(  3-C ,  4-C ) :   1.3789
B(  3-C ,  9-H ) :   0.9622 B(  3-C , 17-Cu) :   0.1272 B(  4-C ,  5-C ) :   1.3879
B(  4-C , 10-H ) :   0.9701 B(  5-C ,  7-H ) :   0.9688 B( 11-C , 12-N ) :   0.9189
B( 11-C , 15-H ) :   0.9834 B( 11-C , 16-H ) :   0.9712 B( 12-N , 13-H ) :   0.9078
B( 12-N , 14-H ) :   0.9092 B( 12-N , 17-Cu) :   0.5690

Dispersion correction           -0.037601383
FINAL SINGLE POINT ENERGY     -1967.196313690698

DIPOLE MOMENT
-------------

Method             : SCF
Type of density    : Electron Density
Multiplicity       :   1
Irrep              :   0
Energy             : -1967.1587123078707009 Eh
Basis              : AO
                                X                 Y                 Z
Electronic contribution:     11.431922248      -0.635889357      12.865186282
Nuclear contribution   :     -9.608696669       1.627267076     -12.143538258
                        -----------------------------------------
Total Dipole Moment    :      1.823225579       0.991377719       0.721648025
                        -----------------------------------------
Magnitude (a.u.)       :      2.197215776
Magnitude (Debye)      :      5.584878664

VIBRATIONAL FREQUENCIES
-----------------------

Scaling factor for frequencies =  1.000000000  (already applied!)

     0:       0.00 cm**-1
     1:       0.00 cm**-1
     2:       0.00 cm**-1
     3:       0.00 cm**-1
     4:       0.00 cm**-1
     5:       0.00 cm**-1
     6:      31.60 cm**-1
     7:      63.77 cm**-1
     8:     105.71 cm**-1
     9:     151.38 cm**-1
    10:     299.59 cm**-1
    11:     349.82 cm**-1
    12:     412.51 cm**-1
    13:     423.14 cm**-1
    14:     509.95 cm**-1
    15:     536.10 cm**-1
    16:     629.90 cm**-1
    17:     635.85 cm**-1
    18:     725.78 cm**-1
    19:     775.17 cm**-1
    20:     818.35 cm**-1
    21:     859.44 cm**-1
    22:     928.35 cm**-1
    23:     936.94 cm**-1
    24:     978.62 cm**-1
    25:     987.68 cm**-1
    26:    1015.50 cm**-1
    27:    1021.48 cm**-1
    28:    1048.82 cm**-1
    29:    1073.12 cm**-1
    30:    1105.35 cm**-1
    31:    1159.14 cm**-1
    32:    1179.93 cm**-1
    33:    1195.51 cm**-1
    34:    1232.28 cm**-1
    35:    1308.09 cm**-1
    36:    1344.14 cm**-1
    37:    1363.76 cm**-1
    38:    1397.27 cm**-1
    39:    1484.17 cm**-1
    40:    1497.37 cm**-1
    41:    1526.87 cm**-1
    42:    1618.66 cm**-1
    43:    1621.74 cm**-1
    44:    1637.16 cm**-1
    45:    3066.62 cm**-1
    46:    3117.86 cm**-1
    47:    3129.26 cm**-1
    48:    3171.39 cm**-1
    49:    3180.93 cm**-1
    50:    3189.20 cm**-1
    51:    3199.27 cm**-1
    52:    3465.54 cm**-1
    53:    3528.73 cm**-1

IR SPECTRUM
-----------

 Mode   freq       eps      Int      T**2         TX        TY        TZ
       cm**-1   L/(mol*cm) km/mol    a.u.
----------------------------------------------------------------------------
  6:     31.60   0.001058    5.35  0.010451  ( 0.082187  0.022007  0.056672)
  7:     63.77   0.000632    3.19  0.003092  ( 0.042559  0.020723  0.029184)
  8:    105.71   0.000633    3.20  0.001870  ( 0.036266 -0.009625 -0.021492)
  9:    151.38   0.002758   13.94  0.005686  (-0.041720 -0.010382 -0.061950)
 10:    299.59   0.000445    2.25  0.000464  (-0.018160 -0.010578 -0.004730)
 11:    349.82   0.000317    1.60  0.000283  (-0.009995  0.011083  0.007734)
 12:    412.51   0.000606    3.06  0.000459  ( 0.006136  0.012599  0.016198)
 13:    423.14   0.000375    1.90  0.000277  (-0.004457 -0.014350 -0.007140)
 14:    509.95   0.002351   11.88  0.001439  ( 0.020494  0.010964  0.029979)
 15:    536.10   0.007739   39.11  0.004505  ( 0.061058 -0.025850 -0.010425)
 16:    629.90   0.007603   38.42  0.003766  ( 0.050796 -0.011152 -0.032586)
 17:    635.85   0.000031    0.15  0.000015  (-0.000142  0.003834  0.000559)
 18:    725.78   0.017201   86.93  0.007396  ( 0.014574  0.028036  0.079983)
 19:    775.17   0.008843   44.69  0.003560  ( 0.027460  0.018876  0.049495)
 20:    818.35   0.004228   21.36  0.001612  (-0.030814 -0.010202 -0.023634)
 21:    859.44   0.000470    2.37  0.000171  ( 0.011903 -0.004992  0.001991)
 22:    928.35   0.009444   47.73  0.003175  (-0.027372 -0.008663 -0.048480)
 23:    936.94   0.000697    3.52  0.000232  (-0.014672 -0.002149 -0.003518)
 24:    978.62   0.003315   16.75  0.001057  ( 0.022926  0.010884  0.020324)
 25:    987.68   0.000173    0.87  0.000055  ( 0.006560 -0.000891  0.003278)
 26:   1015.50   0.000156    0.79  0.000048  ( 0.002328  0.000091  0.006525)
 27:   1021.48   0.000470    2.38  0.000144  ( 0.009404 -0.000099  0.007427)
 28:   1048.82   0.001103    5.58  0.000328  ( 0.011761  0.009704 -0.009788)
 29:   1073.12   0.017425   88.06  0.005067  (-0.022288  0.028034 -0.061519)
 30:   1105.35   0.003046   15.39  0.000860  (-0.004387  0.002289  0.028903)
 31:   1159.14   0.001022    5.16  0.000275  (-0.007707  0.011316 -0.009361)
 32:   1179.93   0.000011    0.06  0.000003  (-0.000341  0.001177 -0.001175)
 33:   1195.51   0.000054    0.27  0.000014  ( 0.002616  0.000787 -0.002568)
 34:   1232.28   0.002858   14.44  0.000724  (-0.016864 -0.016635  0.012757)
 35:   1308.09   0.000558    2.82  0.000133  (-0.003914 -0.010392  0.003146)
 36:   1344.14   0.000151    0.76  0.000035  ( 0.000188 -0.003464 -0.004797)
 37:   1363.76   0.000006    0.03  0.000001  ( 0.000726  0.000088  0.000904)
 38:   1397.27   0.003450   17.43  0.000770  ( 0.022483  0.016276  0.000182)
 39:   1484.17   0.001735    8.77  0.000365  (-0.009460  0.016588  0.000364)
 40:   1497.37   0.000899    4.54  0.000187  (-0.007853 -0.000647  0.011195)
 41:   1526.87   0.001996   10.09  0.000408  ( 0.011772  0.012379 -0.010775)
 42:   1618.66   0.001051    5.31  0.000203  ( 0.013789 -0.000530  0.003483)
 43:   1621.74   0.009432   47.66  0.001815  ( 0.010984  0.039673  0.010970)
 44:   1637.16   0.001644    8.31  0.000313  ( 0.013901  0.009362  0.005701)
 45:   3066.62   0.005977   30.21  0.000608  ( 0.005376  0.008139 -0.022652)
 46:   3117.86   0.001937    9.79  0.000194  ( 0.008955 -0.010647  0.000531)
 47:   3129.26   0.001433    7.24  0.000143  ( 0.011944  0.000080  0.000434)
 48:   3171.39   0.000727    3.67  0.000072  ( 0.002329  0.007055 -0.004041)
 49:   3180.93   0.000409    2.07  0.000040  (-0.003529 -0.004291  0.003043)
 50:   3189.20   0.002885   14.58  0.000282  (-0.008397  0.014134 -0.003473)
 51:   3199.27   0.001883    9.52  0.000184  ( 0.011739  0.005904 -0.003321)
 52:   3465.54   0.005462   27.60  0.000492  (-0.008587 -0.020002 -0.004242)
 53:   3528.73   0.010498   53.05  0.000928  ( 0.026723 -0.011843 -0.008600)

--------------------------
THERMOCHEMISTRY AT 298.15K
--------------------------

Temperature         ...   298.15 K
Pressure            ...     1.00 atm
Total Mass          ...   170.71 AMU
Quasi RRHO          ...     True
Cut-Off Frequency   ...     1.00 cm^-1

Throughout the following assumptions are being made:
  (1) The electronic state is orbitally nondegenerate
  (2) There are no thermally accessible electronically excited states
  (3) Hindered rotations indicated by low frequency modes are not
      treated as such but are treated as vibrations and this may
      cause some error
  (4) All equations used are the standard statistical mechanics
      equations for an ideal gas
  (5) All vibrations are strictly harmonic

freq.      31.60  E(vib)   ...       0.55
freq.      63.77  E(vib)   ...       0.51
freq.     105.71  E(vib)   ...       0.45
freq.     151.38  E(vib)   ...       0.40
freq.     299.59  E(vib)   ...       0.26
freq.     349.82  E(vib)   ...       0.23
freq.     412.51  E(vib)   ...       0.19
freq.     423.14  E(vib)   ...       0.18
freq.     509.95  E(vib)   ...       0.14
freq.     536.10  E(vib)   ...       0.12
freq.     629.90  E(vib)   ...       0.09
freq.     635.85  E(vib)   ...       0.09
freq.     725.78  E(vib)   ...       0.06
freq.     775.17  E(vib)   ...       0.05
freq.     818.35  E(vib)   ...       0.05
freq.     859.44  E(vib)   ...       0.04
freq.     928.35  E(vib)   ...       0.03
freq.     936.94  E(vib)   ...       0.03
freq.     978.62  E(vib)   ...       0.03
freq.     987.68  E(vib)   ...       0.02
freq.    1015.50  E(vib)   ...       0.02
freq.    1021.48  E(vib)   ...       0.02
freq.    1048.82  E(vib)   ...       0.02
freq.    1073.12  E(vib)   ...       0.02
freq.    1105.35  E(vib)   ...       0.02
freq.    1159.14  E(vib)   ...       0.01
freq.    1179.93  E(vib)   ...       0.01
freq.    1195.51  E(vib)   ...       0.01
freq.    1232.28  E(vib)   ...       0.01
freq.    1308.09  E(vib)   ...       0.01
freq.    1344.14  E(vib)   ...       0.01
freq.    1363.76  E(vib)   ...       0.01
freq.    1397.27  E(vib)   ...       0.00
freq.    1484.17  E(vib)   ...       0.00
freq.    1497.37  E(vib)   ...       0.00
freq.    1526.87  E(vib)   ...       0.00
freq.    1618.66  E(vib)   ...       0.00
freq.    1621.74  E(vib)   ...       0.00
freq.    1637.16  E(vib)   ...       0.00
freq.    3066.62  E(vib)   ...       0.00
freq.    3117.86  E(vib)   ...       0.00
freq.    3129.26  E(vib)   ...       0.00
freq.    3171.39  E(vib)   ...       0.00
freq.    3180.93  E(vib)   ...       0.00
freq.    3189.20  E(vib)   ...       0.00
freq.    3199.27  E(vib)   ...       0.00
freq.    3465.54  E(vib)   ...       0.00
freq.    3528.73  E(vib)   ...       0.00

------------
INNER ENERGY
------------

The inner energy is: U= E(el) + E(ZPE) + E(vib) + E(rot) + E(trans)
    E(el)   - is the total energy from the electronic structure calculation
              = E(kin-el) + E(nuc-el) + E(el-el) + E(nuc-nuc)
    E(ZPE)  - the the zero temperature vibrational energy from the frequency calculation
    E(vib)  - the the finite temperature correction to E(ZPE) due to population
              of excited vibrational states
    E(rot)  - is the rotational thermal energy
    E(trans)- is the translational thermal energy

Summary of contributions to the inner energy U:
Electronic energy                ...  -1967.19631369 Eh
Zero point energy                ...      0.14816923 Eh      92.98 kcal/mol
Thermal vibrational correction   ...      0.00589289 Eh       3.70 kcal/mol
Thermal rotational correction    ...      0.00141627 Eh       0.89 kcal/mol
Thermal translational correction ...      0.00141627 Eh       0.89 kcal/mol
-----------------------------------------------------------------------
Total thermal energy                  -1967.03941902 Eh

Summary of corrections to the electronic energy:
(perhaps to be used in another calculation)
Total thermal correction                  0.00872543 Eh       5.48 kcal/mol
Non-thermal (ZPE) correction              0.14816923 Eh      92.98 kcal/mol
-----------------------------------------------------------------------
Total correction                          0.15689467 Eh      98.45 kcal/mol

--------
ENTHALPY
--------

The enthalpy is H = U + kB*T
                kB is Boltzmann's constant
Total thermal energy              ...  -1967.03941902 Eh
Thermal Enthalpy correction       ...      0.00094421 Eh       0.59 kcal/mol
-----------------------------------------------------------------------
Total Enthalpy                    ...  -1967.03847481 Eh

Note: Only C1 symmetry has been detected, increase convergence thresholds
      if your molecule has a higher symmetry. Symmetry factor of 1.0 is
      used for the rotational entropy correction.

Note: Rotational entropy computed according to Herzberg
Infrared and Raman Spectra, Chapter V,1, Van Nostrand Reinhold, 1945
Point Group:  C1, Symmetry Number:   1
Rotational constants in cm-1:     0.070656     0.032115     0.025936

Vibrational entropy computed according to the QRRHO of S. Grimme
Chem.Eur.J. 2012 18 9955 using a reference frequency of 100.0 cm-1

-------
ENTROPY
-------

The entropy contributions are T*S = T*(S(el)+S(vib)+S(rot)+S(trans))
     S(el)   - electronic entropy
     S(vib)  - vibrational entropy
     S(rot)  - rotational entropy
     S(trans)- translational entropy
The entropies will be listed as multiplied by the temperature to get
units of energy

Electronic entropy                ...      0.00000000 Eh      0.00 kcal/mol
Vibrational entropy               ...      0.01025995 Eh      6.44 kcal/mol
Rotational entropy                ...      0.01410921 Eh      8.85 kcal/mol
Translational entropy             ...      0.01962863 Eh     12.32 kcal/mol
-----------------------------------------------------------------------
Final entropy term                ...      0.04399779 Eh     27.61 kcal/mol

In case the symmetry of your molecule has not been determined correctly
or in case you have a reason to use a different symmetry number we print
out the resulting rotational entropy values for sn=1,12:

 non-linear molecules -----------------------------------
|  sn= 1 | S(rot)=       0.01410921 Eh      8.85 kcal/mol|
|  sn= 2 | S(rot)=       0.01345475 Eh      8.44 kcal/mol|
|  sn= 3 | S(rot)=       0.01307192 Eh      8.20 kcal/mol|
|  sn= 4 | S(rot)=       0.01280030 Eh      8.03 kcal/mol|
|  sn= 5 | S(rot)=       0.01258961 Eh      7.90 kcal/mol|
|  sn= 6 | S(rot)=       0.01241746 Eh      7.79 kcal/mol|
|  sn= 7 | S(rot)=       0.01227192 Eh      7.70 kcal/mol|
|  sn= 8 | S(rot)=       0.01214584 Eh      7.62 kcal/mol|
|  sn= 9 | S(rot)=       0.01203463 Eh      7.55 kcal/mol|
|  sn=10 | S(rot)=       0.01193515 Eh      7.49 kcal/mol|
|  sn=11 | S(rot)=       0.01184516 Eh      7.43 kcal/mol|
|  sn=12 | S(rot)=       0.01176301 Eh      7.38 kcal/mol|

                             ****ORCA TERMINATED NORMALLY****
TOTAL RUN TIME: 0 days 0 hours 19 minutes 8 seconds 975 msec
