                         Program Version 6.1.0-f.0  -   RELEASE   -
|  1> !B3LYP DEF2-TZVP D3BJ
|  2> !IRC TightSCF defgrid2
|  3> %SCF
|  4>     MaxIter 2000       # Here setting MaxIter to a very high number. Intended for systems that require sometimes 1000 iterations before converging (very rare).
|  5>     DIISMaxEq 5        # Default value is 5. A value of 15-40 necessary for difficult systems.
|  6>     directresetfreq 15 # Default value is 15. A value of 1 (very expensive) is sometimes required. A value between 1 and 15 may be more cost-effective.
|  7> END
|  8> %CPCM EPSILON 6.02 REFRAC 1.3723 END
|  9> %PAL NPROCS 32 END
| 10> %maxcore 2000
| 11> %IRC
| 12>     MaxIter 2000
| 13>     InitHess calc_numfreq
| 14>     Direction both
| 15>     TolMAXG 2.e-3  # Max gradient (a.u.). Currently set to values equivalent to LooseOpt.
| 16>     TolRMSG 5.e-4  # RMS gradient (a.u.). Currently set to values equivalent to LooseOpt.
| 17>     PrintLevel 1
| 18> END
| 19> * xyzfile 1 1 TS.xyz
| 20>
| 21>                          ****END OF INPUT****

CARTESIAN COORDINATES (ANGSTROEM)
---------------------------------
  C     -2.975533    1.866067    1.650650
  C     -1.837443    2.623551    1.409334
  C     -0.626591    2.286595    2.017996
  C     -0.565294    1.172912    2.859563
  C     -1.704082    0.417451    3.097847
  C     -2.911387    0.762491    2.495313
  H     -3.911769    2.138247    1.181182
  H     -3.797707    0.170178    2.682023
  H     -1.885371    3.482825    0.751750
  H      0.370624    0.876890    3.318216
  H     -1.649533   -0.444638    3.749629
  C      0.547075    3.143498    1.762395
  N      1.497422    3.322721    2.790383
  H      1.344910    2.818679    3.652646
  H      1.837973    4.264850    2.923413
  H      0.339166    4.049128    1.210324
  H      1.056471    2.388478    0.231600
  Cu     2.293528    2.294536    1.128775

 Total Charge           Charge          ....    1
 Multiplicity           Mult            ....    1
 Number of Electrons    NEL             ....   86
 Basis Dimension        Dim             ....  347

ORBITAL ENERGIES
----------------

  NO   OCC          E(Eh)            E(eV)
   0   2.0000    -323.068407     -8791.1383
   1   2.0000     -38.863977     -1057.5426
   2   2.0000     -34.068855      -927.0607
   3   2.0000     -34.068454      -927.0498
   4   2.0000     -34.067920      -927.0352
   5   2.0000     -14.394177      -391.6855
   6   2.0000     -10.304945      -280.4118
   7   2.0000     -10.223980      -278.2086
   8   2.0000     -10.208562      -277.7891
   9   2.0000     -10.207065      -277.7484
  10   2.0000     -10.202592      -277.6266
  11   2.0000     -10.201991      -277.6103
  12   2.0000     -10.201062      -277.5850
  13   2.0000      -4.354380      -118.4887
  14   2.0000      -2.853080       -77.6363
  15   2.0000      -2.848904       -77.5226
  16   2.0000      -2.842187       -77.3398
  17   2.0000      -0.984009       -26.7762
  18   2.0000      -0.891985       -24.2721
  19   2.0000      -0.802784       -21.8449
  20   2.0000      -0.779832       -21.2203
  21   2.0000      -0.714245       -19.4356
  22   2.0000      -0.644208       -17.5298
  23   2.0000      -0.627769       -17.0825
  24   2.0000      -0.585455       -15.9310
  25   2.0000      -0.559744       -15.2314
  26   2.0000      -0.519577       -14.1384
  27   2.0000      -0.491319       -13.3695
  28   2.0000      -0.477762       -13.0006
  29   2.0000      -0.472040       -12.8449
  30   2.0000      -0.452112       -12.3026
  31   2.0000      -0.445618       -12.1259
  32   2.0000      -0.398762       -10.8509
  33   2.0000      -0.393296       -10.7021
  34   2.0000      -0.379592       -10.3292
  35   2.0000      -0.372968       -10.1490
  36   2.0000      -0.347167        -9.4469
  37   2.0000      -0.338071        -9.1994
  38   2.0000      -0.335335        -9.1249
  39   2.0000      -0.327414        -8.9094
  40   2.0000      -0.293085        -7.9753
  41   2.0000      -0.288760        -7.8575
  42   2.0000      -0.263916        -7.1815
  43   0.0000      -0.115749        -3.1497
  44   0.0000      -0.053459        -1.4547
  45   0.0000      -0.043904        -1.1947
  46   0.0000      -0.024926        -0.6783
  47   0.0000       0.019896         0.5414

MULLIKEN ATOMIC CHARGES
-----------------------
   0 C :   -0.113117
   1 C :   -0.204197
   2 C :    0.082560
   3 C :   -0.206036
   4 C :   -0.140437
   5 C :   -0.124154
   6 H :    0.149409
   7 H :    0.150827
   8 H :    0.148429
   9 H :    0.150678
  10 H :    0.148520
  11 C :    0.196847
  12 N :   -0.443467
  13 H :    0.291220
  14 H :    0.294743
  15 H :    0.199319
  16 H :   -0.092804
  17 Cu:    0.511661
Sum of atomic charges:    1.0000000

LOEWDIN ATOMIC CHARGES
----------------------
   0 C :   -0.123657
   1 C :   -0.086899
   2 C :   -0.153599
   3 C :   -0.094704
   4 C :   -0.124178
   5 C :   -0.117067
   6 H :    0.154307
   7 H :    0.153762
   8 H :    0.158768
   9 H :    0.158470
  10 H :    0.154032
  11 C :   -0.181522
  12 N :    0.045955
  13 H :    0.197395
  14 H :    0.204078
  15 H :    0.170783
  16 H :    0.044594
  17 Cu:    0.439484

  Mayer bond orders larger than 0.100000
B(  0-C ,  1-C ) :   1.4231 B(  0-C ,  5-C ) :   1.3843 B(  0-C ,  6-H ) :   0.9715
B(  1-C ,  2-C ) :   1.3511 B(  1-C ,  8-H ) :   0.9682 B(  2-C ,  3-C ) :   1.2963
B(  2-C , 11-C ) :   1.0281 B(  3-C ,  4-C ) :   1.4476 B(  3-C ,  9-H ) :   0.9660
B(  4-C ,  5-C ) :   1.3800 B(  4-C , 10-H ) :   0.9692 B(  5-C ,  7-H ) :   0.9658
B( 11-C , 12-N ) :   0.9914 B( 11-C , 15-H ) :   0.9780 B( 11-C , 16-H ) :   0.2505
B( 11-C , 17-Cu) :   0.4541 B( 12-N , 13-H ) :   0.8972 B( 12-N , 14-H ) :   0.8969
B( 12-N , 17-Cu) :   0.2933 B( 16-H , 17-Cu) :   0.6276

Dispersion correction           -0.035745944
FINAL SINGLE POINT ENERGY     -1967.122119666255
Dispersion correction             ... done (  0.0 sec)

DIPOLE MOMENT
-------------

Method             : SCF
Type of density    : Electron Density
Multiplicity       :   1
Irrep              :   0
Energy             : -1967.0863737224208307 Eh
Basis              : AO
                                X                 Y                 Z
Electronic contribution:     20.883479933       1.363638880      -6.037442518
Nuclear contribution   :    -18.551220299      -0.232924908       6.637357907
                        -----------------------------------------
Total Dipole Moment    :      2.332259635       1.130713972       0.599915389
                        -----------------------------------------
Magnitude (a.u.)       :      2.660422441
Magnitude (Debye)      :      6.762256440

--------------------------
THERMOCHEMISTRY AT 298.15K
--------------------------

Temperature         ...   298.15 K
Pressure            ...     1.00 atm
Total Mass          ...   170.71 AMU
Quasi RRHO          ...     True
Cut-Off Frequency   ...     1.00 cm^-1

Throughout the following assumptions are being made:
  (1) The electronic state is orbitally nondegenerate
  (2) There are no thermally accessible electronically excited states
  (3) Hindered rotations indicated by low frequency modes are not
      treated as such but are treated as vibrations and this may
      cause some error
  (4) All equations used are the standard statistical mechanics
      equations for an ideal gas
  (5) All vibrations are strictly harmonic

freq.      50.87  E(vib)   ...       0.52
freq.      80.57  E(vib)   ...       0.48
freq.     168.48  E(vib)   ...       0.38
freq.     228.65  E(vib)   ...       0.32
freq.     258.79  E(vib)   ...       0.30
freq.     362.69  E(vib)   ...       0.22
freq.     411.50  E(vib)   ...       0.19
freq.     422.44  E(vib)   ...       0.18
freq.     489.85  E(vib)   ...       0.15
freq.     521.32  E(vib)   ...       0.13
freq.     578.63  E(vib)   ...       0.11
freq.     632.49  E(vib)   ...       0.09
freq.     641.95  E(vib)   ...       0.09
freq.     697.41  E(vib)   ...       0.07
freq.     711.93  E(vib)   ...       0.07
freq.     790.47  E(vib)   ...       0.05
freq.     809.30  E(vib)   ...       0.05
freq.     859.64  E(vib)   ...       0.04
freq.     947.58  E(vib)   ...       0.03
freq.     990.53  E(vib)   ...       0.02
freq.    1015.89  E(vib)   ...       0.02
freq.    1023.01  E(vib)   ...       0.02
freq.    1048.35  E(vib)   ...       0.02
freq.    1091.61  E(vib)   ...       0.02
freq.    1103.90  E(vib)   ...       0.02
freq.    1138.70  E(vib)   ...       0.01
freq.    1180.88  E(vib)   ...       0.01
freq.    1181.66  E(vib)   ...       0.01
freq.    1208.24  E(vib)   ...       0.01
freq.    1244.76  E(vib)   ...       0.01
freq.    1337.28  E(vib)   ...       0.01
freq.    1368.71  E(vib)   ...       0.01
freq.    1437.18  E(vib)   ...       0.00
freq.    1491.68  E(vib)   ...       0.00
freq.    1534.35  E(vib)   ...       0.00
freq.    1617.66  E(vib)   ...       0.00
freq.    1622.02  E(vib)   ...       0.00
freq.    1641.05  E(vib)   ...       0.00
freq.    1779.77  E(vib)   ...       0.00
freq.    3163.11  E(vib)   ...       0.00
freq.    3172.99  E(vib)   ...       0.00
freq.    3187.37  E(vib)   ...       0.00
freq.    3191.26  E(vib)   ...       0.00
freq.    3196.92  E(vib)   ...       0.00
freq.    3207.00  E(vib)   ...       0.00
freq.    3518.27  E(vib)   ...       0.00
freq.    3620.47  E(vib)   ...       0.00

------------
INNER ENERGY
------------

The inner energy is: U= E(el) + E(ZPE) + E(vib) + E(rot) + E(trans)
    E(el)   - is the total energy from the electronic structure calculation
              = E(kin-el) + E(nuc-el) + E(el-el) + E(nuc-nuc)
    E(ZPE)  - the the zero temperature vibrational energy from the frequency calculation
    E(vib)  - the the finite temperature correction to E(ZPE) due to population
              of excited vibrational states
    E(rot)  - is the rotational thermal energy
    E(trans)- is the translational thermal energy

Summary of contributions to the inner energy U:
Electronic energy                ...  -1967.12211967 Eh
Zero point energy                ...      0.14119899 Eh      88.60 kcal/mol
Thermal vibrational correction   ...      0.00584260 Eh       3.67 kcal/mol
Thermal rotational correction    ...      0.00141627 Eh       0.89 kcal/mol
Thermal translational correction ...      0.00141627 Eh       0.89 kcal/mol
-----------------------------------------------------------------------
Total thermal energy                  -1966.97224553 Eh

Summary of corrections to the electronic energy:
(perhaps to be used in another calculation)
Total thermal correction                  0.00867514 Eh       5.44 kcal/mol
Non-thermal (ZPE) correction              0.14119899 Eh      88.60 kcal/mol
-----------------------------------------------------------------------
Total correction                          0.14987413 Eh      94.05 kcal/mol

--------
ENTHALPY
--------

The enthalpy is H = U + kB*T
                kB is Boltzmann's constant
Total thermal energy              ...  -1966.97224553 Eh
Thermal Enthalpy correction       ...      0.00094421 Eh       0.59 kcal/mol
-----------------------------------------------------------------------
Total Enthalpy                    ...  -1966.97130132 Eh

Note: Only C1 symmetry has been detected, increase convergence thresholds
      if your molecule has a higher symmetry. Symmetry factor of 1.0 is
      used for the rotational entropy correction.

Note: Rotational entropy computed according to Herzberg
Infrared and Raman Spectra, Chapter V,1, Van Nostrand Reinhold, 1945
Point Group:  C1, Symmetry Number:   1
Rotational constants in cm-1:     0.103897     0.020434     0.019540

Vibrational entropy computed according to the QRRHO of S. Grimme
Chem.Eur.J. 2012 18 9955 using a reference frequency of 100.0 cm-1

-------
ENTROPY
-------

The entropy contributions are T*S = T*(S(el)+S(vib)+S(rot)+S(trans))
     S(el)   - electronic entropy
     S(vib)  - vibrational entropy
     S(rot)  - rotational entropy
     S(trans)- translational entropy
The entropies will be listed as multiplied by the temperature to get
units of energy

Electronic entropy                ...      0.00000000 Eh      0.00 kcal/mol
Vibrational entropy               ...      0.00974035 Eh      6.11 kcal/mol
Rotational entropy                ...      0.01427431 Eh      8.96 kcal/mol
Translational entropy             ...      0.01962863 Eh     12.32 kcal/mol
-----------------------------------------------------------------------
Final entropy term                ...      0.04364329 Eh     27.39 kcal/mol

In case the symmetry of your molecule has not been determined correctly
or in case you have a reason to use a different symmetry number we print
out the resulting rotational entropy values for sn=1,12:

 non-linear molecules -----------------------------------
|  sn= 1 | S(rot)=       0.01427431 Eh      8.96 kcal/mol|
|  sn= 2 | S(rot)=       0.01361985 Eh      8.55 kcal/mol|
|  sn= 3 | S(rot)=       0.01323702 Eh      8.31 kcal/mol|
|  sn= 4 | S(rot)=       0.01296539 Eh      8.14 kcal/mol|
|  sn= 5 | S(rot)=       0.01275471 Eh      8.00 kcal/mol|
|  sn= 6 | S(rot)=       0.01258256 Eh      7.90 kcal/mol|
|  sn= 7 | S(rot)=       0.01243702 Eh      7.80 kcal/mol|
|  sn= 8 | S(rot)=       0.01231094 Eh      7.73 kcal/mol|
|  sn= 9 | S(rot)=       0.01219973 Eh      7.66 kcal/mol|
|  sn=10 | S(rot)=       0.01210025 Eh      7.59 kcal/mol|
|  sn=11 | S(rot)=       0.01201026 Eh      7.54 kcal/mol|
|  sn=12 | S(rot)=       0.01192811 Eh      7.48 kcal/mol|
 linear molecules ---------------------------------------

                      ***********************HURRAY********************
                      ***********************HURRAY********************
                             ****ORCA TERMINATED NORMALLY****
TOTAL RUN TIME: 0 days 4 hours 6 minutes 48 seconds 127 msec
