                         Program Version 6.1.0-f.0  -   RELEASE   -
|  1> !B3LYP DEF2-TZVP D3BJ
|  2> !OPT FREQ TightOPT TightSCF defgrid2
|  3> %SCF
|  4>     MaxIter 2000       # Here setting MaxIter to a very high number. Intended for systems that require sometimes 1000 iterations before converging (very rare).
|  5>     DIISMaxEq 5        # Default value is 5. A value of 15-40 necessary for difficult systems.
|  6>     directresetfreq 15 # Default value is 15. A value of 1 (very expensive) is sometimes required. A value between 1 and 15 may be more cost-effective.
|  7> END
|  8> %CPCM EPSILON 6.02 REFRAC 1.3723 END
|  9> %PAL NPROCS 32 END
| 10> %maxcore 2000 # This indicates you want ORCA to use only 2GB per core maximum, so ORCA will use only 2GB*32=64GB of memory in total.
| 11> * xyzfile 1 1 reactant_opt_constrained.xyz                           ****END OF INPUT****
 Total Charge           Charge          ....    1
 Multiplicity           Mult            ....    1
 Number of Electrons    NEL             ....   86
Dispersion correction           -0.037574616
FINAL SINGLE POINT ENERGY     -1967.195781882409
Dispersion correction             ... done (  0.0 sec)
Dispersion correction           -0.037578421
FINAL SINGLE POINT ENERGY     -1967.196289789754
Dispersion correction             ... done (  0.0 sec)
Dispersion correction           -0.037578465
FINAL SINGLE POINT ENERGY     -1967.196344116299
Dispersion correction             ... done (  0.0 sec)
FINAL SINGLE POINT ENERGY     -1967.196354335676
FINAL SINGLE POINT ENERGY     -1967.196391701525
FINAL SINGLE POINT ENERGY     -1967.196361105378
FINAL SINGLE POINT ENERGY     -1967.196365951939
FINAL SINGLE POINT ENERGY     -1967.196360356176
FINAL SINGLE POINT ENERGY     -1967.196364283151
FINAL SINGLE POINT ENERGY     -1967.196367468845
FINAL SINGLE POINT ENERGY     -1967.196360297703
FINAL SINGLE POINT ENERGY     -1967.196366863040
FINAL SINGLE POINT ENERGY     -1967.196396899725
FINAL SINGLE POINT ENERGY     -1967.196362585449
FINAL SINGLE POINT ENERGY     -1967.196376879618
FINAL SINGLE POINT ENERGY     -1967.196396760768
Dispersion correction             ... done (  0.0 sec)
Dispersion correction           -0.037585658
FINAL SINGLE POINT ENERGY     -1967.196359377987
Dispersion correction             ... done (  0.0 sec)
Dispersion correction           -0.037586570
FINAL SINGLE POINT ENERGY     -1967.196356728043
Dispersion correction             ... done (  0.0 sec)
                    ***********************HURRAY********************

CARTESIAN COORDINATES (ANGSTROEM)
---------------------------------
  C     -2.981170    1.807894    1.607572
  C     -1.885423    2.661113    1.501598
  C     -0.724414    2.408079    2.225371
  C     -0.669812    1.274888    3.053843
  C     -1.770486    0.428418    3.166717
  C     -2.929978    0.699342    2.445705
  H     -3.878863    2.014510    1.039025
  H     -3.785164    0.041244    2.527983
  H     -1.935668    3.530878    0.857786
  H      0.258358    1.023159    3.560827
  H     -1.713010   -0.448205    3.798923
  C      0.423225    3.383828    2.237078
  N      0.320522    4.230126    3.468140
  H     -0.299230    5.017694    3.293941
  H      1.225578    4.623687    3.709501
  H      0.420399    4.008693    1.343659
  H      1.373817    2.854811    2.288605
  Cu    -0.536114    3.077338    4.860404

 Multiplicity           Mult            ....    1
 Number of Electrons    NEL             ....   86
 Basis Dimension        Dim             ....  347

ORBITAL ENERGIES
----------------

  NO   OCC          E(Eh)            E(eV)
   0   2.0000    -323.020785     -8789.8424
   1   2.0000     -38.809067     -1056.0484
   2   2.0000     -34.014037      -925.5690
   3   2.0000     -34.013934      -925.5662
   4   2.0000     -34.013655      -925.5586
   5   2.0000     -14.381734      -391.3469
   6   2.0000     -10.238753      -278.6106
   7   2.0000     -10.217697      -278.0377
   8   2.0000     -10.209816      -277.8232
   9   2.0000     -10.205139      -277.6960
  10   2.0000     -10.202610      -277.6271
  11   2.0000     -10.202053      -277.6120
  12   2.0000     -10.200159      -277.5604
  13   2.0000      -4.303125      -117.0940
  14   2.0000      -2.798322       -76.1462
  15   2.0000      -2.798082       -76.1397
  16   2.0000      -2.796847       -76.1061
  17   2.0000      -0.950217       -25.8567
  18   2.0000      -0.888529       -24.1781
  19   2.0000      -0.796447       -21.6724
  20   2.0000      -0.778625       -21.1875
  21   2.0000      -0.706168       -19.2158
  22   2.0000      -0.640094       -17.4179
  23   2.0000      -0.615953       -16.7609
  24   2.0000      -0.557830       -15.1793
  25   2.0000      -0.540095       -14.6967
  26   2.0000      -0.517306       -14.0766
  27   2.0000      -0.485703       -13.2167
  28   2.0000      -0.482623       -13.1328
  29   2.0000      -0.452605       -12.3160
  30   2.0000      -0.449291       -12.2258
  31   2.0000      -0.422637       -11.5005
  32   2.0000      -0.402963       -10.9652
  33   2.0000      -0.385980       -10.5031
  34   2.0000      -0.372355       -10.1323
  35   2.0000      -0.362942        -9.8762
  36   2.0000      -0.307759        -8.3746
  37   2.0000      -0.296144        -8.0585
  38   2.0000      -0.291890        -7.9427
  39   2.0000      -0.291312        -7.9270
  40   2.0000      -0.285779        -7.7764
  41   2.0000      -0.283514        -7.7148
  42   2.0000      -0.257054        -6.9948
  43   0.0000      -0.089798        -2.4435
  44   0.0000      -0.053362        -1.4521
  45   0.0000      -0.044545        -1.2121
  46   0.0000       0.015006         0.4083
  47   0.0000       0.026296         0.7155

MULLIKEN ATOMIC CHARGES
-----------------------
   0 C :   -0.103172
   1 C :   -0.227428
   2 C :    0.232037
   3 C :   -0.237311
   4 C :   -0.111711
   5 C :   -0.144421
   6 H :    0.149027
   7 H :    0.149171
   8 H :    0.142590
   9 H :    0.151681
  10 H :    0.151191
  11 C :   -0.139721
  12 N :   -0.433957
  13 H :    0.275135
  14 H :    0.276468
  15 H :    0.149409
  16 H :    0.154336
  17 Cu:    0.566675
Sum of atomic charges:    1.0000000

LOEWDIN ATOMIC CHARGES
----------------------
   0 C :   -0.119023
   1 C :   -0.098363
   2 C :   -0.143031
   3 C :   -0.108917
   4 C :   -0.115274
   5 C :   -0.126955
   6 H :    0.153546
   7 H :    0.152878
   8 H :    0.156182
   9 H :    0.175123
  10 H :    0.154532
  11 C :   -0.212300
  12 N :   -0.010656
  13 H :    0.195974
  14 H :    0.192809
  15 H :    0.142520
  16 H :    0.151810
  17 Cu:    0.459147

  Mayer bond orders larger than 0.100000
B(  0-C ,  1-C ) :   1.3866 B(  0-C ,  5-C ) :   1.3894 B(  0-C ,  6-H ) :   0.9723
B(  1-C ,  2-C ) :   1.4015 B(  1-C ,  8-H ) :   0.9767 B(  2-C ,  3-C ) :   1.2313
B(  2-C , 11-C ) :   0.9303 B(  2-C , 12-N ) :  -0.1186 B(  3-C ,  4-C ) :   1.3785
B(  3-C ,  9-H ) :   0.9621 B(  3-C , 17-Cu) :   0.1301 B(  4-C ,  5-C ) :   1.3876
B(  4-C , 10-H ) :   0.9701 B(  5-C ,  7-H ) :   0.9688 B( 11-C , 12-N ) :   0.9226
B( 11-C , 15-H ) :   0.9841 B( 11-C , 16-H ) :   0.9708 B( 12-N , 13-H ) :   0.9077
B( 12-N , 14-H ) :   0.9093 B( 12-N , 17-Cu) :   0.5681

Dispersion correction           -0.037587237
FINAL SINGLE POINT ENERGY     -1967.196379265489

DIPOLE MOMENT
-------------

Method             : SCF
Type of density    : Electron Density
Multiplicity       :   1
Irrep              :   0
Energy             : -1967.1587920286060580 Eh
Basis              : AO
                                X                 Y                 Z
Electronic contribution:      2.956724828       4.382909967      16.347099903
Nuclear contribution   :     -1.892301450      -2.887409664     -15.150284885
                        -----------------------------------------
Total Dipole Moment    :      1.064423377       1.495500302       1.196815018
                        -----------------------------------------
Magnitude (a.u.)       :      2.191320257
Magnitude (Debye)      :      5.569893446

VIBRATIONAL FREQUENCIES
-----------------------

Scaling factor for frequencies =  1.000000000  (already applied!)

     0:       0.00 cm**-1
     1:       0.00 cm**-1
     2:       0.00 cm**-1
     3:       0.00 cm**-1
     4:       0.00 cm**-1
     5:       0.00 cm**-1
     6:      43.09 cm**-1
     7:      79.61 cm**-1
     8:     115.07 cm**-1
     9:     154.33 cm**-1
    10:     300.34 cm**-1
    11:     348.97 cm**-1
    12:     413.62 cm**-1
    13:     425.75 cm**-1
    14:     510.15 cm**-1
    15:     539.55 cm**-1
    16:     630.34 cm**-1
    17:     636.00 cm**-1
    18:     728.63 cm**-1
    19:     775.41 cm**-1
    20:     819.13 cm**-1
    21:     865.44 cm**-1
    22:     928.60 cm**-1
    23:     940.21 cm**-1
    24:     978.97 cm**-1
    25:     990.51 cm**-1
    26:    1016.52 cm**-1
    27:    1022.38 cm**-1
    28:    1048.60 cm**-1
    29:    1073.93 cm**-1
    30:    1106.06 cm**-1
    31:    1159.70 cm**-1
    32:    1179.93 cm**-1
    33:    1195.52 cm**-1
    34:    1232.38 cm**-1
    35:    1308.51 cm**-1
    36:    1344.34 cm**-1
    37:    1363.74 cm**-1
    38:    1397.14 cm**-1
    39:    1484.12 cm**-1
    40:    1496.77 cm**-1
    41:    1526.84 cm**-1
    42:    1618.42 cm**-1
    43:    1621.56 cm**-1
    44:    1636.98 cm**-1
    45:    3065.93 cm**-1
    46:    3117.21 cm**-1
    47:    3126.00 cm**-1
    48:    3171.58 cm**-1
    49:    3180.85 cm**-1
    50:    3189.07 cm**-1
    51:    3199.07 cm**-1
    52:    3468.30 cm**-1
    53:    3531.05 cm**-1

IR SPECTRUM
-----------

 Mode   freq       eps      Int      T**2         TX        TY        TZ
       cm**-1   L/(mol*cm) km/mol    a.u.
----------------------------------------------------------------------------
  6:     43.09   0.000957    4.84  0.006928  ( 0.031957  0.041251  0.064848)
  7:     79.61   0.000536    2.71  0.002103  ( 0.019938  0.028328  0.030050)
  8:    115.07   0.000580    2.93  0.001574  (-0.039186  0.005711 -0.002440)
  9:    154.33   0.002895   14.63  0.005853  (-0.002801 -0.032013 -0.069430)
 10:    300.34   0.000499    2.52  0.000519  (-0.012748 -0.015520 -0.010752)
 11:    348.97   0.000327    1.65  0.000292  (-0.014032  0.009593 -0.001758)
 12:    413.62   0.000652    3.30  0.000492  (-0.003076  0.017243  0.013617)
 13:    425.75   0.000280    1.42  0.000205  (-0.000680  0.014149  0.002170)
 14:    510.15   0.002270   11.47  0.001388  ( 0.001288  0.019880  0.031487)
 15:    539.55   0.007820   39.52  0.004523  (-0.059852  0.014542 -0.027003)
 16:    630.34   0.007507   37.94  0.003717  ( 0.060764 -0.004930  0.000463)
 17:    636.00   0.000030    0.15  0.000015  ( 0.000005 -0.003747  0.000784)
 18:    728.63   0.016906   85.44  0.007241  (-0.032660  0.044194  0.064970)
 19:    775.41   0.008701   43.97  0.003502  (-0.005697  0.032955  0.048817)
 20:    819.13   0.004160   21.02  0.001585  (-0.012199 -0.021127 -0.031458)
 21:    865.44   0.000407    2.06  0.000147  ( 0.008512 -0.001689  0.008455)
 22:    928.60   0.007788   39.36  0.002617  ( 0.005808 -0.020326 -0.046588)
 23:    940.21   0.002737   13.83  0.000908  (-0.009323 -0.013166 -0.025459)
 24:    978.97   0.003402   17.19  0.001084  ( 0.007221  0.019166  0.025787)
 25:    990.51   0.000260    1.32  0.000082  ( 0.004085  0.001352  0.007967)
 26:   1016.52   0.000224    1.13  0.000069  (-0.001013  0.002300  0.007899)
 27:   1022.38   0.000305    1.54  0.000093  (-0.003893 -0.003070 -0.008271)
 28:   1048.60   0.001058    5.35  0.000315  (-0.014006 -0.010187  0.003880)
 29:   1073.93   0.017061   86.22  0.004958  (-0.010423 -0.011029  0.068755)
 30:   1106.06   0.003284   16.60  0.000927  ( 0.019328 -0.006261 -0.022667)
 31:   1159.70   0.001083    5.47  0.000291  ( 0.002421 -0.007361  0.015212)
 32:   1179.93   0.000011    0.06  0.000003  ( 0.000208  0.000923 -0.001440)
 33:   1195.52   0.000055    0.28  0.000014  ( 0.003544  0.000667 -0.001184)
 34:   1232.38   0.002898   14.65  0.000734  ( 0.019257  0.017694 -0.007070)
 35:   1308.51   0.000573    2.90  0.000137  (-0.003949 -0.010396  0.003620)
 36:   1344.34   0.000166    0.84  0.000039  (-0.002925  0.004397  0.003270)
 37:   1363.74   0.000005    0.03  0.000001  ( 0.000062 -0.000220 -0.001049)
 38:   1397.14   0.003521   17.79  0.000786  (-0.017438 -0.020982 -0.006494)
 39:   1484.12   0.001725    8.72  0.000363  (-0.009800  0.013704 -0.008879)
 40:   1496.77   0.000913    4.62  0.000190  ( 0.012493  0.000343 -0.005854)
 41:   1526.84   0.001954    9.88  0.000399  (-0.014223 -0.012479  0.006437)
 42:   1618.42   0.001174    5.93  0.000226  (-0.009880 -0.005718 -0.009796)
 43:   1621.56   0.009168   46.33  0.001764  ( 0.000750 -0.041870 -0.003279)
 44:   1636.98   0.001559    7.88  0.000297  (-0.008092 -0.012309 -0.008953)
 45:   3065.93   0.005833   29.48  0.000594  (-0.015163 -0.004856  0.018445)
 46:   3117.21   0.001812    9.16  0.000181  (-0.008184  0.008043 -0.007052)
 47:   3126.00   0.001431    7.23  0.000143  ( 0.009866  0.002674  0.006193)
 48:   3171.58   0.000709    3.58  0.000070  (-0.003330 -0.006460  0.004114)
 49:   3180.85   0.000446    2.25  0.000044  (-0.004242 -0.004598  0.002139)
 50:   3189.07   0.002898   14.64  0.000284  (-0.006753  0.010967 -0.010847)
 51:   3199.07   0.001897    9.59  0.000185  ( 0.011099  0.007760  0.001303)
 52:   3468.30   0.005572   28.16  0.000501  ( 0.003741  0.021940  0.002441)
 53:   3531.05   0.010743   54.29  0.000949  ( 0.028434 -0.007810  0.008944)

--------------------------
THERMOCHEMISTRY AT 298.15K
--------------------------

Temperature         ...   298.15 K
Pressure            ...     1.00 atm
Total Mass          ...   170.71 AMU
Quasi RRHO          ...     True
Cut-Off Frequency   ...     1.00 cm^-1

Throughout the following assumptions are being made:
  (1) The electronic state is orbitally nondegenerate
  (2) There are no thermally accessible electronically excited states
  (3) Hindered rotations indicated by low frequency modes are not
      treated as such but are treated as vibrations and this may
      cause some error
  (4) All equations used are the standard statistical mechanics
      equations for an ideal gas
  (5) All vibrations are strictly harmonic

freq.      43.09  E(vib)   ...       0.53
freq.      79.61  E(vib)   ...       0.49
freq.     115.07  E(vib)   ...       0.44
freq.     154.33  E(vib)   ...       0.40
freq.     300.34  E(vib)   ...       0.26
freq.     348.97  E(vib)   ...       0.23
freq.     413.62  E(vib)   ...       0.19
freq.     425.75  E(vib)   ...       0.18
freq.     510.15  E(vib)   ...       0.14
freq.     539.55  E(vib)   ...       0.12
freq.     630.34  E(vib)   ...       0.09
freq.     636.00  E(vib)   ...       0.09
freq.     728.63  E(vib)   ...       0.06
freq.     775.41  E(vib)   ...       0.05
freq.     819.13  E(vib)   ...       0.05
freq.     865.44  E(vib)   ...       0.04
freq.     928.60  E(vib)   ...       0.03
freq.     940.21  E(vib)   ...       0.03
freq.     978.97  E(vib)   ...       0.03
freq.     990.51  E(vib)   ...       0.02
freq.    1016.52  E(vib)   ...       0.02
freq.    1022.38  E(vib)   ...       0.02
freq.    1048.60  E(vib)   ...       0.02
freq.    1073.93  E(vib)   ...       0.02
freq.    1106.06  E(vib)   ...       0.02
freq.    1159.70  E(vib)   ...       0.01
freq.    1179.93  E(vib)   ...       0.01
freq.    1195.52  E(vib)   ...       0.01
freq.    1232.38  E(vib)   ...       0.01
freq.    1308.51  E(vib)   ...       0.01
freq.    1344.34  E(vib)   ...       0.01
freq.    1363.74  E(vib)   ...       0.01
freq.    1397.14  E(vib)   ...       0.00
freq.    1484.12  E(vib)   ...       0.00
freq.    1496.77  E(vib)   ...       0.00
freq.    1526.84  E(vib)   ...       0.00
freq.    1618.42  E(vib)   ...       0.00
freq.    1621.56  E(vib)   ...       0.00
freq.    1636.98  E(vib)   ...       0.00
freq.    3065.93  E(vib)   ...       0.00
freq.    3117.21  E(vib)   ...       0.00
freq.    3126.00  E(vib)   ...       0.00
freq.    3171.58  E(vib)   ...       0.00
freq.    3180.85  E(vib)   ...       0.00
freq.    3189.07  E(vib)   ...       0.00
freq.    3199.07  E(vib)   ...       0.00
freq.    3468.30  E(vib)   ...       0.00
freq.    3531.05  E(vib)   ...       0.00

------------
INNER ENERGY
------------

The inner energy is: U= E(el) + E(ZPE) + E(vib) + E(rot) + E(trans)
    E(el)   - is the total energy from the electronic structure calculation
              = E(kin-el) + E(nuc-el) + E(el-el) + E(nuc-nuc)
    E(ZPE)  - the the zero temperature vibrational energy from the frequency calculation
    E(vib)  - the the finite temperature correction to E(ZPE) due to population
              of excited vibrational states
    E(rot)  - is the rotational thermal energy
    E(trans)- is the translational thermal energy

Summary of contributions to the inner energy U:
Electronic energy                ...  -1967.19637927 Eh
Zero point energy                ...      0.14832286 Eh      93.07 kcal/mol
Thermal vibrational correction   ...      0.00580324 Eh       3.64 kcal/mol
Thermal rotational correction    ...      0.00141627 Eh       0.89 kcal/mol
Thermal translational correction ...      0.00141627 Eh       0.89 kcal/mol
-----------------------------------------------------------------------
Total thermal energy                  -1967.03942063 Eh

Summary of corrections to the electronic energy:
(perhaps to be used in another calculation)
Total thermal correction                  0.00863578 Eh       5.42 kcal/mol
Non-thermal (ZPE) correction              0.14832286 Eh      93.07 kcal/mol
-----------------------------------------------------------------------
Total correction                          0.15695864 Eh      98.49 kcal/mol

--------
ENTHALPY
--------

The enthalpy is H = U + kB*T
                kB is Boltzmann's constant
Total thermal energy              ...  -1967.03942063 Eh
Thermal Enthalpy correction       ...      0.00094421 Eh       0.59 kcal/mol
-----------------------------------------------------------------------
Total Enthalpy                    ...  -1967.03847642 Eh

Note: Only C1 symmetry has been detected, increase convergence thresholds
      if your molecule has a higher symmetry. Symmetry factor of 1.0 is
      used for the rotational entropy correction.

Note: Rotational entropy computed according to Herzberg
Infrared and Raman Spectra, Chapter V,1, Van Nostrand Reinhold, 1945
Point Group:  C1, Symmetry Number:   1
Rotational constants in cm-1:     0.070734     0.032159     0.025962

Vibrational entropy computed according to the QRRHO of S. Grimme
Chem.Eur.J. 2012 18 9955 using a reference frequency of 100.0 cm-1

-------
ENTROPY
-------

The entropy contributions are T*S = T*(S(el)+S(vib)+S(rot)+S(trans))
     S(el)   - electronic entropy
     S(vib)  - vibrational entropy
     S(rot)  - rotational entropy
     S(trans)- translational entropy
The entropies will be listed as multiplied by the temperature to get
units of energy

Electronic entropy                ...      0.00000000 Eh      0.00 kcal/mol
Vibrational entropy               ...      0.00999065 Eh      6.27 kcal/mol
Rotational entropy                ...      0.01410757 Eh      8.85 kcal/mol
Translational entropy             ...      0.01962863 Eh     12.32 kcal/mol
-----------------------------------------------------------------------
Final entropy term                ...      0.04372685 Eh     27.44 kcal/mol

In case the symmetry of your molecule has not been determined correctly
or in case you have a reason to use a different symmetry number we print
out the resulting rotational entropy values for sn=1,12:

 non-linear molecules -----------------------------------
|  sn= 1 | S(rot)=       0.01410757 Eh      8.85 kcal/mol|
|  sn= 2 | S(rot)=       0.01345312 Eh      8.44 kcal/mol|
|  sn= 3 | S(rot)=       0.01307029 Eh      8.20 kcal/mol|
|  sn= 4 | S(rot)=       0.01279866 Eh      8.03 kcal/mol|
|  sn= 5 | S(rot)=       0.01258797 Eh      7.90 kcal/mol|
|  sn= 6 | S(rot)=       0.01241583 Eh      7.79 kcal/mol|
|  sn= 7 | S(rot)=       0.01227028 Eh      7.70 kcal/mol|
|  sn= 8 | S(rot)=       0.01214421 Eh      7.62 kcal/mol|
|  sn= 9 | S(rot)=       0.01203300 Eh      7.55 kcal/mol|
|  sn=10 | S(rot)=       0.01193352 Eh      7.49 kcal/mol|
|  sn=11 | S(rot)=       0.01184353 Eh      7.43 kcal/mol|
|  sn=12 | S(rot)=       0.01176137 Eh      7.38 kcal/mol|

                             ****ORCA TERMINATED NORMALLY****
TOTAL RUN TIME: 0 days 0 hours 14 minutes 33 seconds 479 msec
