                         Program Version 6.1.0-f.0  -   RELEASE   -
|  1> !B3LYP DEF2-TZVP D3BJ
|  2> !OptTS NumFreq TightOPT TightSCF defgrid2
|  3> %SCF
|  4>     MaxIter 2000       # Here setting MaxIter to a very high number. Intended for systems that require sometimes 1000 iterations before converging (very rare).
|  5>     DIISMaxEq 5        # Default value is 5. A value of 15-40 necessary for difficult systems.
|  6>     directresetfreq 15 # Default value is 15. A value of 1 (very expensive) is sometimes required. A value between 1 and 15 may be more cost-effective.
|  7> END
|  8> %CPCM EPSILON 6.02 REFRAC 1.3723 END
|  9> %PAL NPROCS 32 END
| 10> %maxcore 2000
| 11> %GEOM
| 12>     Calc_Hess true # Calculate Hessian in the beginning
| 13>     NumHess true # Request numerical Hessian (analytical not available)
| 14>     Recalc_Hess 1  # Recalculate the Hessian for every step
| 15> END
| 16> * xyzfile 1 1 orca.073.xyz
| 17>
| 18>
| 19>                          ****END OF INPUT****
 Total Charge           Charge          ....    1
 Multiplicity           Mult            ....    1
 Number of Electrons    NEL             ....   86
Dispersion correction           -0.035758458
FINAL SINGLE POINT ENERGY     -1967.122157027469
Dispersion correction             ... done (  0.0 sec)
Dispersion correction           -0.035745123
FINAL SINGLE POINT ENERGY     -1967.122108667235
Dispersion correction             ... done (  0.0 sec)
Dispersion correction           -0.035745129
FINAL SINGLE POINT ENERGY     -1967.122273402097
Dispersion correction             ... done (  0.0 sec)
Dispersion correction           -0.035745889
FINAL SINGLE POINT ENERGY     -1967.122107352886
Dispersion correction             ... done (  0.0 sec)
                    ***********************HURRAY********************

CARTESIAN COORDINATES (ANGSTROEM)
---------------------------------
  C     -2.975533    1.866067    1.650650
  C     -1.837443    2.623551    1.409334
  C     -0.626591    2.286595    2.017996
  C     -0.565294    1.172912    2.859563
  C     -1.704082    0.417451    3.097847
  C     -2.911387    0.762491    2.495313
  H     -3.911769    2.138247    1.181182
  H     -3.797707    0.170178    2.682023
  H     -1.885371    3.482825    0.751750
  H      0.370624    0.876890    3.318216
  H     -1.649533   -0.444638    3.749629
  C      0.547075    3.143498    1.762395
  N      1.497422    3.322721    2.790383
  H      1.344910    2.818679    3.652646
  H      1.837973    4.264850    2.923413
  H      0.339166    4.049128    1.210324
  H      1.056471    2.388478    0.231600
  Cu     2.293528    2.294536    1.128775

 Multiplicity           Mult            ....    1
 Number of Electrons    NEL             ....   86
 Basis Dimension        Dim             ....  347

ORBITAL ENERGIES
----------------

  NO   OCC          E(Eh)            E(eV)
   0   2.0000    -323.068236     -8791.1336
   1   2.0000     -38.863817     -1057.5382
   2   2.0000     -34.068692      -927.0562
   3   2.0000     -34.068291      -927.0453
   4   2.0000     -34.067757      -927.0308
   5   2.0000     -14.394178      -391.6855
   6   2.0000     -10.304941      -280.4117
   7   2.0000     -10.223963      -278.2082
   8   2.0000     -10.208546      -277.7887
   9   2.0000     -10.207071      -277.7485
  10   2.0000     -10.202604      -277.6270
  11   2.0000     -10.202009      -277.6108
  12   2.0000     -10.201082      -277.5856
  13   2.0000      -4.354284      -118.4861
  14   2.0000      -2.852987       -77.6337
  15   2.0000      -2.848811       -77.5201
  16   2.0000      -2.842095       -77.3373
  17   2.0000      -0.984007       -26.7762
  18   2.0000      -0.891985       -24.2722
  19   2.0000      -0.802786       -21.8449
  20   2.0000      -0.779833       -21.2203
  21   2.0000      -0.714245       -19.4356
  22   2.0000      -0.644210       -17.5298
  23   2.0000      -0.627770       -17.0825
  24   2.0000      -0.585455       -15.9310
  25   2.0000      -0.559743       -15.2314
  26   2.0000      -0.519578       -14.1384
  27   2.0000      -0.491320       -13.3695
  28   2.0000      -0.477757       -13.0004
  29   2.0000      -0.472039       -12.8448
  30   2.0000      -0.452114       -12.3026
  31   2.0000      -0.445618       -12.1259
  32   2.0000      -0.398761       -10.8508
  33   2.0000      -0.393275       -10.7016
  34   2.0000      -0.379584       -10.3290
  35   2.0000      -0.372962       -10.1488
  36   2.0000      -0.347102        -9.4451
  37   2.0000      -0.337996        -9.1973
  38   2.0000      -0.335259        -9.1229
  39   2.0000      -0.327344        -8.9075
  40   2.0000      -0.293072        -7.9749
  41   2.0000      -0.288760        -7.8576
  42   2.0000      -0.263890        -7.1808
  43   0.0000      -0.115738        -3.1494
  44   0.0000      -0.053453        -1.4545
  45   0.0000      -0.043905        -1.1947
  46   0.0000      -0.024924        -0.6782
  47   0.0000       0.019898         0.5415

MULLIKEN ATOMIC CHARGES
-----------------------
   0 C :   -0.113105
   1 C :   -0.204200
   2 C :    0.082545
   3 C :   -0.206069
   4 C :   -0.140432
   5 C :   -0.124131
   6 H :    0.149407
   7 H :    0.150822
   8 H :    0.148436
   9 H :    0.150689
  10 H :    0.148520
  11 C :    0.196877
  12 N :   -0.443461
  13 H :    0.291219
  14 H :    0.294745
  15 H :    0.199318
  16 H :   -0.092786
  17 Cu:    0.511607
Sum of atomic charges:    1.0000000

LOEWDIN ATOMIC CHARGES
----------------------
   0 C :   -0.123640
   1 C :   -0.086896
   2 C :   -0.153618
   3 C :   -0.094721
   4 C :   -0.124171
   5 C :   -0.117047
   6 H :    0.154305
   7 H :    0.153760
   8 H :    0.158768
   9 H :    0.158471
  10 H :    0.154031
  11 C :   -0.181518
  12 N :    0.045963
  13 H :    0.197395
  14 H :    0.204079
  15 H :    0.170786
  16 H :    0.044602
  17 Cu:    0.439452

  Mayer bond orders larger than 0.100000
B(  0-C ,  1-C ) :   1.4231 B(  0-C ,  5-C ) :   1.3843 B(  0-C ,  6-H ) :   0.9715
B(  1-C ,  2-C ) :   1.3512 B(  1-C ,  8-H ) :   0.9682 B(  2-C ,  3-C ) :   1.2964
B(  2-C , 11-C ) :   1.0281 B(  3-C ,  4-C ) :   1.4476 B(  3-C ,  9-H ) :   0.9660
B(  4-C ,  5-C ) :   1.3800 B(  4-C , 10-H ) :   0.9692 B(  5-C ,  7-H ) :   0.9658
B( 11-C , 12-N ) :   0.9914 B( 11-C , 15-H ) :   0.9780 B( 11-C , 16-H ) :   0.2505
B( 11-C , 17-Cu) :   0.4541 B( 12-N , 13-H ) :   0.8972 B( 12-N , 14-H ) :   0.8969
B( 12-N , 17-Cu) :   0.2933 B( 16-H , 17-Cu) :   0.6276

Dispersion correction           -0.035745944
FINAL SINGLE POINT ENERGY     -1967.122081136159

DIPOLE MOMENT
-------------

Method             : SCF
Type of density    : Electron Density
Multiplicity       :   1
Irrep              :   0
Energy             : -1967.0863351923242135 Eh
Basis              : AO
                                X                 Y                 Z
Electronic contribution:     20.883213731       1.363650450      -6.037446530
Nuclear contribution   :    -18.551220299      -0.232924908       6.637357907
                        -----------------------------------------
Total Dipole Moment    :      2.331993432       1.130725542       0.599911378
                        -----------------------------------------
Magnitude (a.u.)       :      2.660193091
Magnitude (Debye)      :      6.761673477

VIBRATIONAL FREQUENCIES
-----------------------

Scaling factor for frequencies =  1.000000000  (already applied!)

     0:       0.00 cm**-1
     1:       0.00 cm**-1
     2:       0.00 cm**-1
     3:       0.00 cm**-1
     4:       0.00 cm**-1
     5:       0.00 cm**-1
     6:    -822.13 cm**-1  ***imaginary mode***
     7:      58.18 cm**-1
     8:      84.13 cm**-1
     9:     171.84 cm**-1
    10:     228.59 cm**-1
    11:     260.60 cm**-1
    12:     361.45 cm**-1
    13:     413.26 cm**-1
    14:     427.65 cm**-1
    15:     490.08 cm**-1
    16:     523.52 cm**-1
    17:     579.22 cm**-1
    18:     633.50 cm**-1
    19:     639.19 cm**-1
    20:     695.96 cm**-1
    21:     713.56 cm**-1
    22:     792.39 cm**-1
    23:     809.13 cm**-1
    24:     861.16 cm**-1
    25:     949.18 cm**-1
    26:     991.84 cm**-1
    27:    1017.62 cm**-1
    28:    1022.53 cm**-1
    29:    1049.37 cm**-1
    30:    1092.26 cm**-1
    31:    1104.90 cm**-1
    32:    1144.41 cm**-1
    33:    1181.20 cm**-1
    34:    1182.34 cm**-1
    35:    1208.39 cm**-1
    36:    1244.74 cm**-1
    37:    1336.79 cm**-1
    38:    1369.30 cm**-1
    39:    1437.49 cm**-1
    40:    1492.70 cm**-1
    41:    1532.23 cm**-1
    42:    1618.01 cm**-1
    43:    1621.65 cm**-1
    44:    1641.40 cm**-1
    45:    1776.88 cm**-1
    46:    3170.21 cm**-1
    47:    3174.89 cm**-1
    48:    3183.78 cm**-1
    49:    3191.79 cm**-1
    50:    3197.99 cm**-1
    51:    3200.88 cm**-1
    52:    3527.19 cm**-1
    53:    3629.01 cm**-1

IR SPECTRUM
-----------

 Mode   freq       eps      Int      T**2         TX        TY        TZ
       cm**-1   L/(mol*cm) km/mol    a.u.
----------------------------------------------------------------------------
  7:     58.18   0.000947    4.79  0.005078  (-0.028206  0.054242 -0.036616)
  8:     84.13   0.000800    4.04  0.002969  (-0.049535  0.007513  0.021416)
  9:    171.84   0.001006    5.09  0.001828  (-0.005035 -0.042152 -0.005043)
 10:    228.59   0.006816   34.45  0.009305  (-0.048545 -0.000675  0.083354)
 11:    260.60   0.000691    3.49  0.000827  (-0.024129 -0.005218 -0.014747)
 12:    361.45   0.008150   41.19  0.007036  ( 0.043794  0.012257 -0.070484)
 13:    413.26   0.000297    1.50  0.000224  (-0.010738 -0.007580  0.007155)
 14:    427.65   0.019699   99.55  0.014374  ( 0.085590  0.030905 -0.078062)
 15:    490.08   0.008313   42.01  0.005293  (-0.058490  0.006779  0.042734)
 16:    523.52   0.006715   33.93  0.004003  (-0.008312 -0.025845  0.057146)
 17:    579.22   0.005196   26.26  0.002799  ( 0.015359 -0.034964 -0.036619)
 18:    633.50   0.001969    9.95  0.000970  (-0.025801 -0.017428 -0.000829)
 19:    639.19   0.033256  168.06  0.016236  (-0.120269 -0.033771 -0.025128)
 20:    695.96   0.040040  202.34  0.017953  (-0.126529  0.036657  0.024494)
 21:    713.56   0.028280  142.92  0.012368  ( 0.047594 -0.070879 -0.071267)
 22:    792.39   0.002253   11.38  0.000887  ( 0.013149  0.008307  0.025403)
 23:    809.13   0.003832   19.36  0.001478  (-0.024046 -0.000541  0.029989)
 24:    861.16   0.000012    0.06  0.000005  ( 0.001592 -0.000005  0.001410)
 25:    949.18   0.000354    1.79  0.000116  ( 0.001643 -0.004910 -0.009460)
 26:    991.84   0.000140    0.71  0.000044  (-0.005627 -0.001082 -0.003370)
 27:   1017.62   0.000040    0.20  0.000012  ( 0.002456  0.002392 -0.000672)
 28:   1022.53   0.000545    2.76  0.000166  ( 0.012497 -0.002778 -0.001585)
 29:   1049.37   0.001726    8.72  0.000513  (-0.014604 -0.014494 -0.009476)
 30:   1092.26   0.006416   32.42  0.001833  (-0.003898 -0.032958 -0.027046)
 31:   1104.90   0.007445   37.62  0.002103  ( 0.016126  0.001610  0.042897)
 32:   1144.41   0.006049   30.57  0.001649  ( 0.024639 -0.016308 -0.027864)
 33:   1181.20   0.001631    8.24  0.000431  ( 0.002065  0.004232  0.020214)
 34:   1182.34   0.001082    5.47  0.000285  ( 0.002133 -0.004207 -0.016224)
 35:   1208.39   0.001158    5.85  0.000299  ( 0.014325  0.008968  0.003668)
 36:   1244.74   0.018822   95.12  0.004719  ( 0.056401  0.034359  0.018902)
 37:   1336.79   0.001756    8.88  0.000410  ( 0.019187  0.006366 -0.001147)
 38:   1369.30   0.000946    4.78  0.000215  ( 0.003097  0.013968 -0.003287)
 39:   1437.49   0.011260   56.90  0.002444  (-0.040001 -0.029018 -0.001522)
 40:   1492.70   0.004332   21.89  0.000906  ( 0.024522 -0.010196  0.014157)
 41:   1532.23   0.000192    0.97  0.000039  (-0.002296 -0.004403  0.003806)
 42:   1618.01   0.021007  106.16  0.004052  ( 0.036519  0.017209  0.049211)
 43:   1621.65   0.000391    1.98  0.000075  (-0.002724 -0.003826  0.007293)
 44:   1641.40   0.003096   15.65  0.000589  ( 0.020123  0.013395 -0.002056)
 45:   1776.88   0.007409   37.44  0.001301  (-0.023484 -0.018034 -0.020602)
 46:   3170.21   0.001071    5.41  0.000105  (-0.009789 -0.002617 -0.001664)
 47:   3174.89   0.000372    1.88  0.000037  (-0.001317 -0.004575  0.003731)
 48:   3183.78   0.000497    2.51  0.000049  ( 0.005324  0.004516 -0.000004)
 49:   3191.79   0.002231   11.27  0.000218  ( 0.007392 -0.009107  0.008974)
 50:   3197.99   0.000641    3.24  0.000063  (-0.006260  0.002805  0.003935)
 51:   3200.88   0.001252    6.33  0.000122  ( 0.009885  0.004737 -0.001378)
 52:   3527.19   0.025878  130.78  0.002290  ( 0.008079  0.022192  0.041615)
 53:   3629.01   0.021733  109.83  0.001869  ( 0.013590  0.038350 -0.014609)

--------------------------
THERMOCHEMISTRY AT 298.15K
--------------------------

Temperature         ...   298.15 K
Pressure            ...     1.00 atm
Total Mass          ...   170.71 AMU
Quasi RRHO          ...     True
Cut-Off Frequency   ...     1.00 cm^-1

Throughout the following assumptions are being made:
  (1) The electronic state is orbitally nondegenerate
  (2) There are no thermally accessible electronically excited states
  (3) Hindered rotations indicated by low frequency modes are not
      treated as such but are treated as vibrations and this may
      cause some error
  (4) All equations used are the standard statistical mechanics
      equations for an ideal gas
  (5) All vibrations are strictly harmonic

freq.      58.18  E(vib)   ...       0.51
freq.      84.13  E(vib)   ...       0.48
freq.     171.84  E(vib)   ...       0.38
freq.     228.59  E(vib)   ...       0.32
freq.     260.60  E(vib)   ...       0.30
freq.     361.45  E(vib)   ...       0.22
freq.     413.26  E(vib)   ...       0.19
freq.     427.65  E(vib)   ...       0.18
freq.     490.08  E(vib)   ...       0.15
freq.     523.52  E(vib)   ...       0.13
freq.     579.22  E(vib)   ...       0.11
freq.     633.50  E(vib)   ...       0.09
freq.     639.19  E(vib)   ...       0.09
freq.     695.96  E(vib)   ...       0.07
freq.     713.56  E(vib)   ...       0.07
freq.     792.39  E(vib)   ...       0.05
freq.     809.13  E(vib)   ...       0.05
freq.     861.16  E(vib)   ...       0.04
freq.     949.18  E(vib)   ...       0.03
freq.     991.84  E(vib)   ...       0.02
freq.    1017.62  E(vib)   ...       0.02
freq.    1022.53  E(vib)   ...       0.02
freq.    1049.37  E(vib)   ...       0.02
freq.    1092.26  E(vib)   ...       0.02
freq.    1104.90  E(vib)   ...       0.02
freq.    1144.41  E(vib)   ...       0.01
freq.    1181.20  E(vib)   ...       0.01
freq.    1182.34  E(vib)   ...       0.01
freq.    1208.39  E(vib)   ...       0.01
freq.    1244.74  E(vib)   ...       0.01
freq.    1336.79  E(vib)   ...       0.01
freq.    1369.30  E(vib)   ...       0.01
freq.    1437.49  E(vib)   ...       0.00
freq.    1492.70  E(vib)   ...       0.00
freq.    1532.23  E(vib)   ...       0.00
freq.    1618.01  E(vib)   ...       0.00
freq.    1621.65  E(vib)   ...       0.00
freq.    1641.40  E(vib)   ...       0.00
freq.    1776.88  E(vib)   ...       0.00
freq.    3170.21  E(vib)   ...       0.00
freq.    3174.89  E(vib)   ...       0.00
freq.    3183.78  E(vib)   ...       0.00
freq.    3191.79  E(vib)   ...       0.00
freq.    3197.99  E(vib)   ...       0.00
freq.    3200.88  E(vib)   ...       0.00
freq.    3527.19  E(vib)   ...       0.00
freq.    3629.01  E(vib)   ...       0.00

------------
INNER ENERGY
------------

The inner energy is: U= E(el) + E(ZPE) + E(vib) + E(rot) + E(trans)
    E(el)   - is the total energy from the electronic structure calculation
              = E(kin-el) + E(nuc-el) + E(el-el) + E(nuc-nuc)
    E(ZPE)  - the the zero temperature vibrational energy from the frequency calculation
    E(vib)  - the the finite temperature correction to E(ZPE) due to population
              of excited vibrational states
    E(rot)  - is the rotational thermal energy
    E(trans)- is the translational thermal energy

Summary of contributions to the inner energy U:
Electronic energy                ...  -1967.12210635 Eh
Zero point energy                ...      0.14132469 Eh      88.68 kcal/mol
Thermal vibrational correction   ...      0.00580368 Eh       3.64 kcal/mol
Thermal rotational correction    ...      0.00141627 Eh       0.89 kcal/mol
Thermal translational correction ...      0.00141627 Eh       0.89 kcal/mol
-----------------------------------------------------------------------
Total thermal energy                  -1966.97214544 Eh

Summary of corrections to the electronic energy:
(perhaps to be used in another calculation)
Total thermal correction                  0.00863622 Eh       5.42 kcal/mol
Non-thermal (ZPE) correction              0.14132469 Eh      88.68 kcal/mol
-----------------------------------------------------------------------
Total correction                          0.14996091 Eh      94.10 kcal/mol

--------
ENTHALPY
--------

The enthalpy is H = U + kB*T
                kB is Boltzmann's constant
Total thermal energy              ...  -1966.97214544 Eh
Thermal Enthalpy correction       ...      0.00094421 Eh       0.59 kcal/mol
-----------------------------------------------------------------------
Total Enthalpy                    ...  -1966.97120123 Eh

Note: Only C1 symmetry has been detected, increase convergence thresholds
      if your molecule has a higher symmetry. Symmetry factor of 1.0 is
      used for the rotational entropy correction.

Note: Rotational entropy computed according to Herzberg
Infrared and Raman Spectra, Chapter V,1, Van Nostrand Reinhold, 1945
Point Group:  C1, Symmetry Number:   1
Rotational constants in cm-1:     0.103897     0.020434     0.019540

Vibrational entropy computed according to the QRRHO of S. Grimme
Chem.Eur.J. 2012 18 9955 using a reference frequency of 100.0 cm-1

-------
ENTROPY
-------

The entropy contributions are T*S = T*(S(el)+S(vib)+S(rot)+S(trans))
     S(el)   - electronic entropy
     S(vib)  - vibrational entropy
     S(rot)  - rotational entropy
     S(trans)- translational entropy
The entropies will be listed as multiplied by the temperature to get
units of energy

Electronic entropy                ...      0.00000000 Eh      0.00 kcal/mol
Vibrational entropy               ...      0.00964603 Eh      6.05 kcal/mol
Rotational entropy                ...      0.01427431 Eh      8.96 kcal/mol
Translational entropy             ...      0.01962863 Eh     12.32 kcal/mol
-----------------------------------------------------------------------
Final entropy term                ...      0.04354896 Eh     27.33 kcal/mol

In case the symmetry of your molecule has not been determined correctly
or in case you have a reason to use a different symmetry number we print
out the resulting rotational entropy values for sn=1,12:

 non-linear molecules -----------------------------------
|  sn= 1 | S(rot)=       0.01427431 Eh      8.96 kcal/mol|
|  sn= 2 | S(rot)=       0.01361985 Eh      8.55 kcal/mol|
|  sn= 3 | S(rot)=       0.01323702 Eh      8.31 kcal/mol|
|  sn= 4 | S(rot)=       0.01296539 Eh      8.14 kcal/mol|
|  sn= 5 | S(rot)=       0.01275471 Eh      8.00 kcal/mol|
|  sn= 6 | S(rot)=       0.01258256 Eh      7.90 kcal/mol|
|  sn= 7 | S(rot)=       0.01243702 Eh      7.80 kcal/mol|
|  sn= 8 | S(rot)=       0.01231094 Eh      7.73 kcal/mol|
|  sn= 9 | S(rot)=       0.01219973 Eh      7.66 kcal/mol|
|  sn=10 | S(rot)=       0.01210025 Eh      7.59 kcal/mol|
|  sn=11 | S(rot)=       0.01201026 Eh      7.54 kcal/mol|
|  sn=12 | S(rot)=       0.01192811 Eh      7.48 kcal/mol|
 linear molecules ---------------------------------------

                             ****ORCA TERMINATED NORMALLY****
TOTAL RUN TIME: 0 days 1 hours 52 minutes 46 seconds 605 msec
