                         Program Version 5.0.3 -  RELEASE  -
|  1> !B3LYP DEF2-TZVP D3BJ
|  2> !OptTS NumFreq TIGHTOPT TightSCF defgrid2
|  3> %SCF
|  4>     MaxIter 2000       # Here setting MaxIter to a very high number. Intended for systems that require sometimes 1000 iterations before converging (very rare).
|  5>     DIISMaxEq 5        # Default value is 5. A value of 15-40 necessary for difficult systems.
|  6>     directresetfreq 15 # Default value is 15. A value of 1 (very expensive) is sometimes required. A value between 1 and 15 may be more cost-effective.
|  7> END
|  8> %CPCM EPSILON 6.02 REFRAC 1.3723 END
|  9> %PAL NPROCS 32 END
| 10> %maxcore 2000
| 11> %GEOM
| 12>     Calc_Hess true # Calculate Hessian in the beginning
| 13>     NumHess true # Request numerical Hessian (analytical not available)
| 14>     Recalc_Hess 5  # Recalculate the Hessian every 5 steps
| 15> END
| 16> * xyzfile 1 1 orca.073.xyz
| 17>
| 18>                          ****END OF INPUT****
 Total Charge           Charge          ....    1
 Multiplicity           Mult            ....    1
 Number of Electrons    NEL             ....   86
Dispersion correction           -0.035759602
FINAL SINGLE POINT ENERGY     -1967.122009004938
Dispersion correction            ... done
Dispersion correction           -0.035748458
FINAL SINGLE POINT ENERGY     -1967.121980801585
Dispersion correction            ... done
Dispersion correction           -0.035746598
FINAL SINGLE POINT ENERGY     -1967.121981474470
Dispersion correction            ... done
                    ***********************HURRAY********************

CARTESIAN COORDINATES (ANGSTROEM)
---------------------------------
  C     -2.978099    1.864266    1.663674
  C     -1.842843    2.624707    1.416967
  C     -0.626720    2.285153    2.013300
  C     -0.556876    1.165246    2.846548
  C     -1.692502    0.407088    3.089772
  C     -2.905561    0.755527    2.500543
  H     -3.918772    2.138272    1.204228
  H     -3.789635    0.160995    2.690963
  H     -1.897469    3.488376    0.765620
  H      0.383932    0.867183    3.293897
  H     -1.631323   -0.459594    3.734883
  C      0.543437    3.146946    1.756961
  N      1.485187    3.338895    2.790733
  H      0.334671    4.047117    1.196286
  H      1.068264    2.380488    0.233290
  H      1.819560    4.283783    2.920591
  H      1.328226    2.838998    3.654826
  Cu     2.298983    2.301013    1.139959

 Multiplicity           Mult            ....    1
 Number of Electrons    NEL             ....   86
 Basis Dimension        Dim             ....  347

ORBITAL ENERGIES
----------------

  NO   OCC          E(Eh)            E(eV)
   0   2.0000    -323.068743     -8791.1474
   1   2.0000     -38.864313     -1057.5517
   2   2.0000     -34.069190      -927.0698
   3   2.0000     -34.068788      -927.0589
   4   2.0000     -34.068257      -927.0444
   5   2.0000     -14.394429      -391.6923
   6   2.0000     -10.305285      -280.4211
   7   2.0000     -10.224143      -278.2131
   8   2.0000     -10.208652      -277.7915
   9   2.0000     -10.207286      -277.7544
  10   2.0000     -10.202706      -277.6297
  11   2.0000     -10.202105      -277.6134
  12   2.0000     -10.201174      -277.5881
  13   2.0000      -4.354689      -118.4971
  14   2.0000      -2.853364       -77.6440
  15   2.0000      -2.849220       -77.5312
  16   2.0000      -2.842499       -77.3483
  17   2.0000      -0.984140       -26.7798
  18   2.0000      -0.892058       -24.2741
  19   2.0000      -0.802863       -21.8470
  20   2.0000      -0.779938       -21.2232
  21   2.0000      -0.714317       -19.4375
  22   2.0000      -0.644343       -17.5335
  23   2.0000      -0.627905       -17.0862
  24   2.0000      -0.585580       -15.9344
  25   2.0000      -0.559797       -15.2329
  26   2.0000      -0.519780       -14.1439
  27   2.0000      -0.491364       -13.3707
  28   2.0000      -0.478312       -13.0155
  29   2.0000      -0.471645       -12.8341
  30   2.0000      -0.452234       -12.3059
  31   2.0000      -0.445804       -12.1309
  32   2.0000      -0.398734       -10.8501
  33   2.0000      -0.393532       -10.7086
  34   2.0000      -0.379695       -10.3320
  35   2.0000      -0.373103       -10.1526
  36   2.0000      -0.347425        -9.4539
  37   2.0000      -0.338377        -9.2077
  38   2.0000      -0.335665        -9.1339
  39   2.0000      -0.327706        -8.9173
  40   2.0000      -0.293127        -7.9764
  41   2.0000      -0.288854        -7.8601
  42   2.0000      -0.264342        -7.1931
  43   0.0000      -0.115961        -3.1554
  44   0.0000      -0.053469        -1.4550
  45   0.0000      -0.044163        -1.2017
  46   0.0000      -0.025683        -0.6989
  47   0.0000       0.019704         0.5362

MULLIKEN ATOMIC CHARGES
-----------------------
   0 C :   -0.112859
   1 C :   -0.205952
   2 C :    0.083038
   3 C :   -0.207416
   4 C :   -0.139512
   5 C :   -0.123958
   6 H :    0.149588
   7 H :    0.150928
   8 H :    0.148869
   9 H :    0.152476
  10 H :    0.148568
  11 C :    0.194832
  12 N :   -0.444636
  13 H :    0.199546
  14 H :   -0.092256
  15 H :    0.295240
  16 H :    0.291738
  17 Cu:    0.511765
Sum of atomic charges:    1.0000000

LOEWDIN ATOMIC CHARGES
----------------------
   0 C :   -0.123451
   1 C :   -0.086911
   2 C :   -0.153673
   3 C :   -0.094637
   4 C :   -0.123961
   5 C :   -0.116826
   6 H :    0.154329
   7 H :    0.153783
   8 H :    0.158732
   9 H :    0.158869
  10 H :    0.154065
  11 C :   -0.181353
  12 N :    0.045833
  13 H :    0.170707
  14 H :    0.043906
  15 H :    0.204124
  16 H :    0.197640
  17 Cu:    0.438825

  Mayer bond orders larger than 0.100000
B(  0-C ,  1-C ) :   1.4225 B(  0-C ,  5-C ) :   1.3858 B(  0-C ,  6-H ) :   0.9711
B(  1-C ,  2-C ) :   1.3529 B(  1-C ,  8-H ) :   0.9674 B(  2-C ,  3-C ) :   1.2937
B(  2-C , 11-C ) :   1.0286 B(  3-C ,  4-C ) :   1.4491 B(  3-C ,  9-H ) :   0.9656
B(  4-C ,  5-C ) :   1.3793 B(  4-C , 10-H ) :   0.9690 B(  5-C ,  7-H ) :   0.9655
B( 11-C , 12-N ) :   0.9928 B( 11-C , 13-H ) :   0.9771 B( 11-C , 14-H ) :   0.2505
B( 11-C , 17-Cu) :   0.4574 B( 12-N , 15-H ) :   0.8967 B( 12-N , 16-H ) :   0.8969
B( 12-N , 17-Cu) :   0.2912 B( 14-H , 17-Cu) :   0.6284

Dispersion correction           -0.035746276
FINAL SINGLE POINT ENERGY     -1967.121981502470

DIPOLE MOMENT
-------------
                                X             Y             Z
Electronic contribution:     20.90793       1.41805      -5.95486
Nuclear contribution   :    -18.59289      -0.27231       6.56119
                        -----------------------------------------
Total Dipole Moment    :      2.31504       1.14574       0.60633
                        -----------------------------------------
Magnitude (a.u.)       :      2.65326
Magnitude (Debye)      :      6.74405

VIBRATIONAL FREQUENCIES
-----------------------

Scaling factor for frequencies =  1.000000000 (already applied!)

   0:         0.00 cm**-1
   1:         0.00 cm**-1
   2:         0.00 cm**-1
   3:         0.00 cm**-1
   4:         0.00 cm**-1
   5:         0.00 cm**-1
   6:      -825.23 cm**-1 ***imaginary mode***
   7:        49.91 cm**-1
   8:        82.22 cm**-1
   9:       173.50 cm**-1
  10:       227.95 cm**-1
  11:       261.81 cm**-1
  12:       358.33 cm**-1
  13:       410.98 cm**-1
  14:       424.28 cm**-1
  15:       488.31 cm**-1
  16:       526.93 cm**-1
  17:       582.32 cm**-1
  18:       632.43 cm**-1
  19:       634.34 cm**-1
  20:       691.62 cm**-1
  21:       709.44 cm**-1
  22:       791.66 cm**-1
  23:       809.30 cm**-1
  24:       855.97 cm**-1
  25:       945.21 cm**-1
  26:       989.13 cm**-1
  27:      1016.46 cm**-1
  28:      1021.89 cm**-1
  29:      1049.78 cm**-1
  30:      1094.43 cm**-1
  31:      1105.44 cm**-1
  32:      1140.24 cm**-1
  33:      1182.51 cm**-1
  34:      1183.23 cm**-1
  35:      1208.66 cm**-1
  36:      1246.13 cm**-1
  37:      1336.77 cm**-1
  38:      1369.03 cm**-1
  39:      1435.39 cm**-1
  40:      1493.01 cm**-1
  41:      1533.74 cm**-1
  42:      1622.65 cm**-1
  43:      1623.55 cm**-1
  44:      1639.65 cm**-1
  45:      1778.18 cm**-1
  46:      3167.30 cm**-1
  47:      3174.81 cm**-1
  48:      3183.83 cm**-1
  49:      3192.85 cm**-1
  50:      3196.63 cm**-1
  51:      3201.45 cm**-1
  52:      3527.56 cm**-1
  53:      3628.36 cm**-1

IR SPECTRUM
-----------

 Mode   freq       eps      Int      T**2         TX        TY        TZ
       cm**-1   L/(mol*cm) km/mol    a.u.
----------------------------------------------------------------------------
  7:     49.91   0.000332    1.68  0.002076  (-0.025979  0.036430  0.008608)
  8:     82.22   0.000415    2.10  0.001574  (-0.005301  0.035007  0.017895)
  9:    173.50   0.001521    7.69  0.002735  (-0.025149 -0.044618  0.010585)
 10:    227.95   0.002987   15.09  0.004089  (-0.020388 -0.008749  0.059972)
 11:    261.81   0.000539    2.72  0.000642  (-0.023868  0.003292  0.007839)
 12:    358.33   0.008549   43.20  0.007445  ( 0.034973  0.013667 -0.077687)
 13:    410.98   0.001500    7.58  0.001139  (-0.027039 -0.009611  0.017757)
 14:    424.28   0.017783   89.87  0.013080  ( 0.075266  0.031897 -0.079983)
 15:    488.31   0.007584   38.33  0.004847  (-0.052540  0.007620  0.045034)
 16:    526.93   0.007919   40.02  0.004690  (-0.021653 -0.029299  0.057989)
 17:    582.32   0.005721   28.91  0.003066  ( 0.008950 -0.036554 -0.040615)
 18:    632.43   0.020572  103.96  0.010151  (-0.094344 -0.029345 -0.019724)
 19:    634.34   0.018574   93.87  0.009138  (-0.091702 -0.017601 -0.020460)
 20:    691.62   0.042209  213.31  0.019045  (-0.128789  0.044879  0.021073)
 21:    709.44   0.024734  125.00  0.010880  ( 0.038211 -0.067350 -0.069885)
 22:    791.66   0.002327   11.76  0.000917  ( 0.011073  0.009771  0.026442)
 23:    809.30   0.003889   19.65  0.001499  (-0.025928  0.000634  0.028754)
 24:    855.97   0.000056    0.28  0.000020  ( 0.003873  0.001286  0.001932)
 25:    945.21   0.000367    1.86  0.000121  ( 0.001259 -0.003202 -0.010459)
 26:    989.13   0.000051    0.26  0.000016  (-0.003361  0.000606 -0.002080)
 27:   1016.46   0.000022    0.11  0.000007  ( 0.002311  0.000858  0.000732)
 28:   1021.89   0.000383    1.94  0.000117  ( 0.009956  0.000784 -0.004153)
 29:   1049.78   0.001813    9.16  0.000539  (-0.014147 -0.016387 -0.008379)
 30:   1094.43   0.006734   34.03  0.001920  (-0.005311 -0.035061 -0.025745)
 31:   1105.44   0.007242   36.60  0.002044  ( 0.013811  0.004636  0.042803)
 32:   1140.24   0.005691   28.76  0.001558  (-0.024489  0.016286  0.026317)
 33:   1182.51   0.002123   10.73  0.000560  (-0.000733  0.003928  0.023331)
 34:   1183.23   0.001400    7.07  0.000369  ( 0.005599 -0.003681 -0.018008)
 35:   1208.66   0.000770    3.89  0.000199  ( 0.011562  0.007495  0.003012)
 36:   1246.13   0.017681   89.35  0.004428  ( 0.054376  0.033419  0.018820)
 37:   1336.77   0.002028   10.25  0.000474  ( 0.020858  0.006085  0.001193)
 38:   1369.03   0.001169    5.91  0.000266  ( 0.005981  0.014987 -0.002463)
 39:   1435.39   0.011321   57.21  0.002461  (-0.039932 -0.029386 -0.001804)
 40:   1493.01   0.004330   21.88  0.000905  ( 0.023980 -0.011935  0.013697)
 41:   1533.74   0.000272    1.37  0.000055  (-0.001819 -0.004798  0.005377)
 42:   1622.65   0.001279    6.46  0.000246  (-0.011572 -0.007719 -0.007241)
 43:   1623.55   0.017248   87.16  0.003315  ( 0.030112  0.014030  0.047028)
 44:   1639.65   0.003452   17.44  0.000657  ( 0.022486  0.012226  0.001355)
 45:   1778.18   0.007923   40.04  0.001390  (-0.023195 -0.018158 -0.022862)
 46:   3167.30   0.001130    5.71  0.000111  (-0.010127 -0.002362 -0.001781)
 47:   3174.81   0.000359    1.81  0.000035  (-0.001023 -0.005066  0.002925)
 48:   3183.83   0.000299    1.51  0.000029  ( 0.003773  0.003857  0.000388)
 49:   3192.85   0.002688   13.58  0.000263  ( 0.008214 -0.010579  0.009129)
 50:   3196.63   0.000386    1.95  0.000038  ( 0.002739 -0.004009 -0.003756)
 51:   3201.45   0.001660    8.39  0.000162  ( 0.011120  0.005610 -0.002585)
 52:   3527.56   0.025922  131.00  0.002293  (-0.007635 -0.022924 -0.041344)
 53:   3628.36   0.022680  114.61  0.001951  ( 0.013983  0.038949 -0.015429)

--------------------------
THERMOCHEMISTRY AT 298.15K
--------------------------

Temperature         ... 298.15 K
Pressure            ... 1.00 atm
Total Mass          ... 170.71 AMU

Throughout the following assumptions are being made:
  (1) The electronic state is orbitally nondegenerate
  (2) There are no thermally accessible electronically excited states
  (3) Hindered rotations indicated by low frequency modes are not
      treated as such but are treated as vibrations and this may
      cause some error
  (4) All equations used are the standard statistical mechanics
      equations for an ideal gas
  (5) All vibrations are strictly harmonic

freq.      49.91  E(vib)   ...       0.52
freq.      82.22  E(vib)   ...       0.48
freq.     173.50  E(vib)   ...       0.38
freq.     227.95  E(vib)   ...       0.33
freq.     261.81  E(vib)   ...       0.30
freq.     358.33  E(vib)   ...       0.22
freq.     410.98  E(vib)   ...       0.19
freq.     424.28  E(vib)   ...       0.18
freq.     488.31  E(vib)   ...       0.15
freq.     526.93  E(vib)   ...       0.13
freq.     582.32  E(vib)   ...       0.11
freq.     632.43  E(vib)   ...       0.09
freq.     634.34  E(vib)   ...       0.09
freq.     691.62  E(vib)   ...       0.07
freq.     709.44  E(vib)   ...       0.07
freq.     791.66  E(vib)   ...       0.05
freq.     809.30  E(vib)   ...       0.05
freq.     855.97  E(vib)   ...       0.04
freq.     945.21  E(vib)   ...       0.03
freq.     989.13  E(vib)   ...       0.02
freq.    1016.46  E(vib)   ...       0.02
freq.    1021.89  E(vib)   ...       0.02
freq.    1049.78  E(vib)   ...       0.02
freq.    1094.43  E(vib)   ...       0.02
freq.    1105.44  E(vib)   ...       0.02
freq.    1140.24  E(vib)   ...       0.01
freq.    1182.51  E(vib)   ...       0.01
freq.    1183.23  E(vib)   ...       0.01
freq.    1208.66  E(vib)   ...       0.01
freq.    1246.13  E(vib)   ...       0.01
freq.    1336.77  E(vib)   ...       0.01
freq.    1369.03  E(vib)   ...       0.01
freq.    1435.39  E(vib)   ...       0.00
freq.    1493.01  E(vib)   ...       0.00
freq.    1533.74  E(vib)   ...       0.00
freq.    1622.65  E(vib)   ...       0.00
freq.    1623.55  E(vib)   ...       0.00
freq.    1639.65  E(vib)   ...       0.00
freq.    1778.18  E(vib)   ...       0.00
freq.    3167.30  E(vib)   ...       0.00
freq.    3174.81  E(vib)   ...       0.00
freq.    3183.83  E(vib)   ...       0.00
freq.    3192.85  E(vib)   ...       0.00
freq.    3196.63  E(vib)   ...       0.00
freq.    3201.45  E(vib)   ...       0.00
freq.    3527.56  E(vib)   ...       0.00
freq.    3628.36  E(vib)   ...       0.00

------------
INNER ENERGY
------------

The inner energy is: U= E(el) + E(ZPE) + E(vib) + E(rot) + E(trans)
    E(el)   - is the total energy from the electronic structure calculation
              = E(kin-el) + E(nuc-el) + E(el-el) + E(nuc-nuc)
    E(ZPE)  - the the zero temperature vibrational energy from the frequency calculation
    E(vib)  - the the finite temperature correction to E(ZPE) due to population
              of excited vibrational states
    E(rot)  - is the rotational thermal energy
    E(trans)- is the translational thermal energy

Summary of contributions to the inner energy U:
Electronic energy                ...  -1967.12198141 Eh
Zero point energy                ...      0.14124446 Eh      88.63 kcal/mol
Thermal vibrational correction   ...      0.00583572 Eh       3.66 kcal/mol
Thermal rotational correction    ...      0.00141627 Eh       0.89 kcal/mol
Thermal translational correction ...      0.00141627 Eh       0.89 kcal/mol
-----------------------------------------------------------------------
Total thermal energy                  -1966.97206869 Eh

Summary of corrections to the electronic energy:
(perhaps to be used in another calculation)
Total thermal correction                  0.00866826 Eh       5.44 kcal/mol
Non-thermal (ZPE) correction              0.14124446 Eh      88.63 kcal/mol
-----------------------------------------------------------------------
Total correction                          0.14991272 Eh      94.07 kcal/mol

--------
ENTHALPY
--------

The enthalpy is H = U + kB*T
                kB is Boltzmann's constant
Total free energy                 ...  -1966.97206869 Eh
Thermal Enthalpy correction       ...      0.00094421 Eh       0.59 kcal/mol
-----------------------------------------------------------------------
Total Enthalpy                    ...  -1966.97112448 Eh

Note: Only C1 symmetry has been detected, increase convergence thresholds
      if your molecule has a higher symmetry. Symmetry factor of 1.0 is
      used for the rotational entropy correction.

Note: Rotational entropy computed according to Herzberg
Infrared and Raman Spectra, Chapter V,1, Van Nostrand Reinhold, 1945
Point Group:  C1, Symmetry Number:   1
Rotational constants in cm-1:     0.104006     0.020437     0.019519

Vibrational entropy computed according to the QRRHO of S. Grimme
Chem.Eur.J. 2012 18 9955

-------
ENTROPY
-------

The entropy contributions are T*S = T*(S(el)+S(vib)+S(rot)+S(trans))
     S(el)   - electronic entropy
     S(vib)  - vibrational entropy
     S(rot)  - rotational entropy
     S(trans)- translational entropy
The entropies will be listed as multiplied by the temperature to get
units of energy

Electronic entropy                ...      0.00000000 Eh      0.00 kcal/mol
Vibrational entropy               ...      0.00972011 Eh      6.10 kcal/mol
Rotational entropy                ...      0.01427425 Eh      8.96 kcal/mol
Translational entropy             ...      0.01962863 Eh     12.32 kcal/mol
-----------------------------------------------------------------------
Final entropy term                ...      0.04362298 Eh     27.37 kcal/mol

In case the symmetry of your molecule has not been determined correctly
or in case you have a reason to use a different symmetry number we print
out the resulting rotational entropy values for sn=1,12 :
 --------------------------------------------------------
|  sn= 1 | S(rot)=       0.01427425 Eh      8.96 kcal/mol|
|  sn= 2 | S(rot)=       0.01361979 Eh      8.55 kcal/mol|
|  sn= 3 | S(rot)=       0.01323696 Eh      8.31 kcal/mol|
|  sn= 4 | S(rot)=       0.01296534 Eh      8.14 kcal/mol|
|  sn= 5 | S(rot)=       0.01275465 Eh      8.00 kcal/mol|
|  sn= 6 | S(rot)=       0.01258251 Eh      7.90 kcal/mol|
|  sn= 7 | S(rot)=       0.01243696 Eh      7.80 kcal/mol|
|  sn= 8 | S(rot)=       0.01231088 Eh      7.73 kcal/mol|
|  sn= 9 | S(rot)=       0.01219967 Eh      7.66 kcal/mol|
|  sn=10 | S(rot)=       0.01210019 Eh      7.59 kcal/mol|
|  sn=11 | S(rot)=       0.01201020 Eh      7.54 kcal/mol|
|  sn=12 | S(rot)=       0.01192805 Eh      7.48 kcal/mol|
 --------------------------------------------------------

-------------------

                             ****ORCA TERMINATED NORMALLY****
TOTAL RUN TIME: 0 days 7 hours 29 minutes 1 seconds 506 msec
