                         Program Version 6.1.0-f.0  -   RELEASE   -
|  1> !B3LYP DEF2-TZVP D3BJ
|  2> !OPT FREQ TightOPT TightSCF defgrid2
|  3> %SCF
|  4>     MaxIter 2000       # Here setting MaxIter to a very high number. Intended for systems that require sometimes 1000 iterations before converging (very rare).
|  5>     DIISMaxEq 5        # Default value is 5. A value of 15-40 necessary for difficult systems.
|  6>     directresetfreq 15 # Default value is 15. A value of 1 (very expensive) is sometimes required. A value between 1 and 15 may be more cost-effective.
|  7> END
|  8> %CPCM EPSILON 6.02 REFRAC 1.3723 END
|  9> %PAL NPROCS 32 END
| 10> %maxcore 2000 # This indicates you want ORCA to use only 2GB per core maximum, so ORCA will use only 2GB*32=64GB of memory in total.
| 11> * xyzfile 1 1 orca_IRC_F.xyz
| 12>
| 13>
| 14>                          ****END OF INPUT****
 Total Charge           Charge          ....    1
 Multiplicity           Mult            ....    1
 Number of Electrons    NEL             ....   86
Dispersion correction           -0.035297821
FINAL SINGLE POINT ENERGY     -1967.141967495691
Dispersion correction             ... done (  0.0 sec)
Dispersion correction           -0.035250698
FINAL SINGLE POINT ENERGY     -1967.142269203636
Dispersion correction             ... done (  0.0 sec)
Dispersion correction           -0.035176706
FINAL SINGLE POINT ENERGY     -1967.142686068079
Dispersion correction             ... done (  0.0 sec)
FINAL SINGLE POINT ENERGY     -1967.142837309690
FINAL SINGLE POINT ENERGY     -1967.143001414095
FINAL SINGLE POINT ENERGY     -1967.143110737083
FINAL SINGLE POINT ENERGY     -1967.143244659426
FINAL SINGLE POINT ENERGY     -1967.143371460923
FINAL SINGLE POINT ENERGY     -1967.143484897761
FINAL SINGLE POINT ENERGY     -1967.143542923956
FINAL SINGLE POINT ENERGY     -1967.143562158924
FINAL SINGLE POINT ENERGY     -1967.143568144069
FINAL SINGLE POINT ENERGY     -1967.143571736908
FINAL SINGLE POINT ENERGY     -1967.143574185954
FINAL SINGLE POINT ENERGY     -1967.143574440753
FINAL SINGLE POINT ENERGY     -1967.143575479665
FINAL SINGLE POINT ENERGY     -1967.143573521448
Dispersion correction             ... done (  0.0 sec)
Dispersion correction           -0.034976714
FINAL SINGLE POINT ENERGY     -1967.143577215233
Dispersion correction             ... done (  0.0 sec)
Dispersion correction           -0.034975022
FINAL SINGLE POINT ENERGY     -1967.143576757601
Dispersion correction             ... done (  0.0 sec)
                    ***********************HURRAY********************

CARTESIAN COORDINATES (ANGSTROEM)
---------------------------------
  C     -2.977401    1.812835    1.587252
  C     -1.886981    2.657112    1.484120
  C     -0.719003    2.396022    2.224210
  C     -0.665075    1.270335    3.067971
  C     -1.759634    0.435657    3.165586
  C     -2.914272    0.702882    2.425406
  H     -3.874566    2.015281    1.018414
  H     -3.765988    0.040019    2.505635
  H     -1.921653    3.521585    0.833589
  H      0.223846    1.044132    3.641844
  H     -1.721833   -0.428332    3.815009
  C      0.364344    3.318882    2.067016
  N      1.536421    3.283800    2.741070
  H      1.680025    2.622383    3.497003
  H      2.074599    4.141065    2.817446
  H      0.187743    4.225635    1.500509
  H      1.791185    1.997214   -0.528428
  Cu     1.930097    2.471449    0.899277

 Multiplicity           Mult            ....    1
 Number of Electrons    NEL             ....   86
 Basis Dimension        Dim             ....  347

ORBITAL ENERGIES
----------------

  NO   OCC          E(Eh)            E(eV)
   0   2.0000    -323.072776     -8791.2572
   1   2.0000     -38.873827     -1057.8106
   2   2.0000     -34.078621      -927.3264
   3   2.0000     -34.077950      -927.3082
   4   2.0000     -34.077018      -927.2828
   5   2.0000     -14.445365      -393.0784
   6   2.0000     -10.324036      -280.9313
   7   2.0000     -10.245118      -278.7838
   8   2.0000     -10.229590      -278.3613
   9   2.0000     -10.228874      -278.3418
  10   2.0000     -10.223928      -278.2072
  11   2.0000     -10.217176      -278.0235
  12   2.0000     -10.215066      -277.9661
  13   2.0000      -4.359264      -118.6216
  14   2.0000      -2.858337       -77.7793
  15   2.0000      -2.854052       -77.6627
  16   2.0000      -2.842682       -77.3533
  17   2.0000      -1.034393       -28.1473
  18   2.0000      -0.911765       -24.8104
  19   2.0000      -0.826635       -22.4939
  20   2.0000      -0.797846       -21.7105
  21   2.0000      -0.737142       -20.0587
  22   2.0000      -0.665079       -18.0977
  23   2.0000      -0.655061       -17.8251
  24   2.0000      -0.618054       -16.8181
  25   2.0000      -0.586621       -15.9628
  26   2.0000      -0.538253       -14.6466
  27   2.0000      -0.512022       -13.9328
  28   2.0000      -0.498964       -13.5775
  29   2.0000      -0.485202       -13.2030
  30   2.0000      -0.469475       -12.7751
  31   2.0000      -0.464139       -12.6299
  32   2.0000      -0.421526       -11.4703
  33   2.0000      -0.401261       -10.9189
  34   2.0000      -0.389896       -10.6096
  35   2.0000      -0.370859       -10.0916
  36   2.0000      -0.342109        -9.3093
  37   2.0000      -0.339691        -9.2435
  38   2.0000      -0.335874        -9.1396
  39   2.0000      -0.334612        -9.1053
  40   2.0000      -0.317020        -8.6265
  41   2.0000      -0.305038        -8.3005
  42   2.0000      -0.272359        -7.4113
  43   0.0000      -0.151394        -4.1196
  44   0.0000      -0.056640        -1.5413
  45   0.0000      -0.032886        -0.8949
  46   0.0000      -0.027032        -0.7356
  47   0.0000       0.017752         0.4831

MULLIKEN ATOMIC CHARGES
-----------------------
   0 C :   -0.113135
   1 C :   -0.178931
   2 C :    0.197633
   3 C :   -0.186482
   4 C :   -0.121998
   5 C :   -0.088582
   6 H :    0.160604
   7 H :    0.165063
   8 H :    0.162462
   9 H :    0.146906
  10 H :    0.160505
  11 C :    0.008920
  12 N :   -0.178351
  13 H :    0.322899
  14 H :    0.330551
  15 H :    0.222085
  16 H :   -0.070224
  17 Cu:    0.060074
Sum of atomic charges:    1.0000000

LOEWDIN ATOMIC CHARGES
----------------------
   0 C :   -0.109060
   1 C :   -0.046951
   2 C :   -0.138256
   3 C :   -0.057855
   4 C :   -0.106788
   5 C :   -0.074808
   6 H :    0.159657
   7 H :    0.160273
   8 H :    0.165951
   9 H :    0.160806
  10 H :    0.159575
  11 C :   -0.106517
  12 N :    0.163506
  13 H :    0.222470
  14 H :    0.232087
  15 H :    0.191965
  16 H :   -0.199378
  17 Cu:    0.223325

  Mayer bond orders larger than 0.100000
B(  0-C ,  1-C ) :   1.4402 B(  0-C ,  5-C ) :   1.3729 B(  0-C ,  6-H ) :   0.9676
B(  1-C ,  2-C ) :   1.2743 B(  1-C ,  8-H ) :   0.9619 B(  2-C ,  3-C ) :   1.2328
B(  2-C , 11-C ) :   1.1512 B(  3-C ,  4-C ) :   1.4810 B(  3-C ,  9-H ) :   0.9629
B(  4-C ,  5-C ) :   1.3463 B(  4-C , 10-H ) :   0.9636 B(  5-C ,  7-H ) :   0.9592
B( 11-C , 12-N ) :   1.2056 B( 11-C , 15-H ) :   0.9170 B( 11-C , 17-Cu) :   0.4980
B( 12-N , 13-H ) :   0.8723 B( 12-N , 14-H ) :   0.8709 B( 12-N , 17-Cu) :   0.2929
B( 16-H , 17-Cu) :   0.9364

Dispersion correction           -0.034972628
FINAL SINGLE POINT ENERGY     -1967.143578295453

DIPOLE MOMENT
-------------

Method             : SCF
Type of density    : Electron Density
Multiplicity       :   1
Irrep              :   0
Energy             : -1967.1086056677806937 Eh
Basis              : AO
                                X                 Y                 Z
Electronic contribution:     15.833876447       3.432977182      -4.869397253
Nuclear contribution   :    -15.233248935      -1.948906164       7.401440874
                        -----------------------------------------
Total Dipole Moment    :      0.600627512       1.484071018       2.532043621
                        -----------------------------------------
Magnitude (a.u.)       :      2.995741160
Magnitude (Debye)      :      7.614568888

VIBRATIONAL FREQUENCIES
-----------------------

Scaling factor for frequencies =  1.000000000  (already applied!)

     0:       0.00 cm**-1
     1:       0.00 cm**-1
     2:       0.00 cm**-1
     3:       0.00 cm**-1
     4:       0.00 cm**-1
     5:       0.00 cm**-1
     6:      46.05 cm**-1
     7:      70.06 cm**-1
     8:     146.05 cm**-1
     9:     225.14 cm**-1
    10:     281.70 cm**-1
    11:     305.43 cm**-1
    12:     391.89 cm**-1
    13:     402.99 cm**-1
    14:     415.38 cm**-1
    15:     472.44 cm**-1
    16:     496.67 cm**-1
    17:     584.22 cm**-1
    18:     628.51 cm**-1
    19:     679.99 cm**-1
    20:     721.45 cm**-1
    21:     784.71 cm**-1
    22:     794.19 cm**-1
    23:     809.89 cm**-1
    24:     845.55 cm**-1
    25:     954.05 cm**-1
    26:     980.23 cm**-1
    27:     997.24 cm**-1
    28:    1018.49 cm**-1
    29:    1030.82 cm**-1
    30:    1046.51 cm**-1
    31:    1103.69 cm**-1
    32:    1138.20 cm**-1
    33:    1187.91 cm**-1
    34:    1210.53 cm**-1
    35:    1238.59 cm**-1
    36:    1312.08 cm**-1
    37:    1358.82 cm**-1
    38:    1377.79 cm**-1
    39:    1481.33 cm**-1
    40:    1515.59 cm**-1
    41:    1542.97 cm**-1
    42:    1608.75 cm**-1
    43:    1632.94 cm**-1
    44:    1646.78 cm**-1
    45:    1845.36 cm**-1
    46:    3185.00 cm**-1
    47:    3187.95 cm**-1
    48:    3191.67 cm**-1
    49:    3193.66 cm**-1
    50:    3204.18 cm**-1
    51:    3209.66 cm**-1
    52:    3488.03 cm**-1
    53:    3586.23 cm**-1

IR SPECTRUM
-----------

 Mode   freq       eps      Int      T**2         TX        TY        TZ
       cm**-1   L/(mol*cm) km/mol    a.u.
----------------------------------------------------------------------------
  6:     46.05   0.002523   12.75  0.017099  ( 0.101587 -0.079990  0.019518)
  7:     70.06   0.001342    6.78  0.005978  ( 0.056800  0.045439 -0.026211)
  8:    146.05   0.019621   99.16  0.041925  ( 0.185538 -0.022145 -0.083726)
  9:    225.14   0.005433   27.45  0.007530  ( 0.020197  0.080975 -0.023779)
 10:    281.70   0.068553  346.44  0.075942  (-0.234028  0.038686  0.140270)
 11:    305.43   0.024793  125.29  0.025331  ( 0.148429 -0.030587 -0.048626)
 12:    391.89   0.025015  126.42  0.019920  ( 0.132603  0.023866 -0.042031)
 13:    402.99   0.013530   68.38  0.010477  (-0.059208 -0.078496  0.028462)
 14:    415.38   0.015971   80.71  0.011998  (-0.034038  0.101706 -0.022262)
 15:    472.44   0.002874   14.53  0.001899  (-0.027249  0.014564  0.030726)
 16:    496.67   0.003629   18.34  0.002280  ( 0.007811 -0.006193  0.046697)
 17:    584.22   0.005740   29.01  0.003066  (-0.046283 -0.019409  0.023389)
 18:    628.51   0.000362    1.83  0.000180  ( 0.012552  0.000697  0.004675)
 19:    679.99   0.005706   28.83  0.002618  (-0.009182  0.027079  0.042436)
 20:    721.45   0.013004   65.71  0.005625  ( 0.016740 -0.057471 -0.045183)
 21:    784.71   0.057176  288.95  0.022738  (-0.134434  0.029934  0.061395)
 22:    794.19   0.014641   73.99  0.005753  ( 0.075300 -0.004369 -0.007989)
 23:    809.89   0.001823    9.21  0.000702  (-0.017551  0.006787  0.018664)
 24:    845.55   0.000186    0.94  0.000069  ( 0.008082 -0.000392  0.001774)
 25:    954.05   0.005165   26.10  0.001690  ( 0.035573  0.002618 -0.020426)
 26:    980.23   0.015101   76.31  0.004808  ( 0.062046  0.012876 -0.028143)
 27:    997.24   0.001191    6.02  0.000373  (-0.017151 -0.005425  0.007004)
 28:   1018.49   0.001323    6.69  0.000405  (-0.018915 -0.006794  0.001188)
 29:   1030.82   0.000143    0.72  0.000043  ( 0.005063 -0.000726 -0.004143)
 30:   1046.51   0.000311    1.57  0.000093  (-0.003702 -0.008453 -0.002743)
 31:   1103.69   0.002225   11.25  0.000629  ( 0.016026 -0.018466  0.005603)
 32:   1138.20   0.002984   15.08  0.000818  ( 0.000430  0.007069  0.027714)
 33:   1187.91   0.000374    1.89  0.000098  ( 0.005597 -0.007149  0.003982)
 34:   1210.53   0.018288   92.42  0.004715  ( 0.061395  0.025446 -0.017255)
 35:   1238.59   0.010058   50.83  0.002534  ( 0.042963  0.012590 -0.023020)
 36:   1312.08   0.036452  184.21  0.008670  ( 0.068705  0.053730  0.032594)
 37:   1358.82   0.014173   71.63  0.003255  ( 0.056040  0.008251  0.006817)
 38:   1377.79   0.004524   22.86  0.001025  ( 0.015168  0.025752 -0.011465)
 39:   1481.33   0.018243   92.19  0.003843  (-0.032263 -0.049163  0.019628)
 40:   1515.59   0.013959   70.54  0.002874  ( 0.047020  0.023009  0.011571)
 41:   1542.97   0.029409  148.62  0.005948  ( 0.069827  0.032034 -0.006776)
 42:   1608.75   0.002060   10.41  0.000400  (-0.018092 -0.008498  0.000338)
 43:   1632.94   0.039343  198.83  0.007519  ( 0.075437  0.038605 -0.018375)
 44:   1646.78   0.053639  271.07  0.010165  ( 0.080827  0.024679  0.054977)
 45:   1845.36   0.056721  286.64  0.009592  ( 0.025229 -0.024432 -0.091425)
 46:   3185.00   0.000334    1.69  0.000033  ( 0.001821 -0.005175 -0.001618)
 47:   3187.95   0.000753    3.81  0.000074  (-0.007206  0.004640  0.000544)
 48:   3191.67   0.002932   14.82  0.000287  (-0.009051  0.013454  0.004878)
 49:   3193.66   0.001006    5.09  0.000098  ( 0.009159 -0.003795 -0.000179)
 50:   3204.18   0.000833    4.21  0.000081  (-0.004927  0.004029 -0.006374)
 51:   3209.66   0.001167    5.90  0.000114  ( 0.009066  0.004727 -0.002996)
 52:   3488.03   0.054677  276.32  0.004892  (-0.043820 -0.031840 -0.044247)
 53:   3586.23   0.032189  162.67  0.002801  (-0.014434 -0.046691  0.020313)

--------------------------
THERMOCHEMISTRY AT 298.15K
--------------------------

Temperature         ...   298.15 K
Pressure            ...     1.00 atm
Total Mass          ...   170.71 AMU
Quasi RRHO          ...     True
Cut-Off Frequency   ...     1.00 cm^-1

Throughout the following assumptions are being made:
  (1) The electronic state is orbitally nondegenerate
  (2) There are no thermally accessible electronically excited states
  (3) Hindered rotations indicated by low frequency modes are not
      treated as such but are treated as vibrations and this may
      cause some error
  (4) All equations used are the standard statistical mechanics
      equations for an ideal gas
  (5) All vibrations are strictly harmonic

freq.      46.05  E(vib)   ...       0.53
freq.      70.06  E(vib)   ...       0.50
freq.     146.05  E(vib)   ...       0.41
freq.     225.14  E(vib)   ...       0.33
freq.     281.70  E(vib)   ...       0.28
freq.     305.43  E(vib)   ...       0.26
freq.     391.89  E(vib)   ...       0.20
freq.     402.99  E(vib)   ...       0.19
freq.     415.38  E(vib)   ...       0.18
freq.     472.44  E(vib)   ...       0.15
freq.     496.67  E(vib)   ...       0.14
freq.     584.22  E(vib)   ...       0.11
freq.     628.51  E(vib)   ...       0.09
freq.     679.99  E(vib)   ...       0.08
freq.     721.45  E(vib)   ...       0.07
freq.     784.71  E(vib)   ...       0.05
freq.     794.19  E(vib)   ...       0.05
freq.     809.89  E(vib)   ...       0.05
freq.     845.55  E(vib)   ...       0.04
freq.     954.05  E(vib)   ...       0.03
freq.     980.23  E(vib)   ...       0.02
freq.     997.24  E(vib)   ...       0.02
freq.    1018.49  E(vib)   ...       0.02
freq.    1030.82  E(vib)   ...       0.02
freq.    1046.51  E(vib)   ...       0.02
freq.    1103.69  E(vib)   ...       0.02
freq.    1138.20  E(vib)   ...       0.01
freq.    1187.91  E(vib)   ...       0.01
freq.    1210.53  E(vib)   ...       0.01
freq.    1238.59  E(vib)   ...       0.01
freq.    1312.08  E(vib)   ...       0.01
freq.    1358.82  E(vib)   ...       0.01
freq.    1377.79  E(vib)   ...       0.01
freq.    1481.33  E(vib)   ...       0.00
freq.    1515.59  E(vib)   ...       0.00
freq.    1542.97  E(vib)   ...       0.00
freq.    1608.75  E(vib)   ...       0.00
freq.    1632.94  E(vib)   ...       0.00
freq.    1646.78  E(vib)   ...       0.00
freq.    1845.36  E(vib)   ...       0.00
freq.    3185.00  E(vib)   ...       0.00
freq.    3187.95  E(vib)   ...       0.00
freq.    3191.67  E(vib)   ...       0.00
freq.    3193.66  E(vib)   ...       0.00
freq.    3204.18  E(vib)   ...       0.00
freq.    3209.66  E(vib)   ...       0.00
freq.    3488.03  E(vib)   ...       0.00
freq.    3586.23  E(vib)   ...       0.00

------------
INNER ENERGY
------------

The inner energy is: U= E(el) + E(ZPE) + E(vib) + E(rot) + E(trans)
    E(el)   - is the total energy from the electronic structure calculation
              = E(kin-el) + E(nuc-el) + E(el-el) + E(nuc-nuc)
    E(ZPE)  - the the zero temperature vibrational energy from the frequency calculation
    E(vib)  - the the finite temperature correction to E(ZPE) due to population
              of excited vibrational states
    E(rot)  - is the rotational thermal energy
    E(trans)- is the translational thermal energy

Summary of contributions to the inner energy U:
Electronic energy                ...  -1967.14357830 Eh
Zero point energy                ...      0.14256174 Eh      89.46 kcal/mol
Thermal vibrational correction   ...      0.00626499 Eh       3.93 kcal/mol
Thermal rotational correction    ...      0.00141627 Eh       0.89 kcal/mol
Thermal translational correction ...      0.00141627 Eh       0.89 kcal/mol
-----------------------------------------------------------------------
Total thermal energy                  -1966.99191903 Eh

Summary of corrections to the electronic energy:
(perhaps to be used in another calculation)
Total thermal correction                  0.00909753 Eh       5.71 kcal/mol
Non-thermal (ZPE) correction              0.14256174 Eh      89.46 kcal/mol
-----------------------------------------------------------------------
Total correction                          0.15165927 Eh      95.17 kcal/mol

--------
ENTHALPY
--------

The enthalpy is H = U + kB*T
                kB is Boltzmann's constant
Total thermal energy              ...  -1966.99191903 Eh
Thermal Enthalpy correction       ...      0.00094421 Eh       0.59 kcal/mol
-----------------------------------------------------------------------
Total Enthalpy                    ...  -1966.99097482 Eh

Note: Only C1 symmetry has been detected, increase convergence thresholds
      if your molecule has a higher symmetry. Symmetry factor of 1.0 is
      used for the rotational entropy correction.

Note: Rotational entropy computed according to Herzberg
Infrared and Raman Spectra, Chapter V,1, Van Nostrand Reinhold, 1945
Point Group:  C1, Symmetry Number:   1
Rotational constants in cm-1:     0.095820     0.021408     0.020646

Vibrational entropy computed according to the QRRHO of S. Grimme
Chem.Eur.J. 2012 18 9955 using a reference frequency of 100.0 cm-1

-------
ENTROPY
-------

The entropy contributions are T*S = T*(S(el)+S(vib)+S(rot)+S(trans))
     S(el)   - electronic entropy
     S(vib)  - vibrational entropy
     S(rot)  - rotational entropy
     S(trans)- translational entropy
The entropies will be listed as multiplied by the temperature to get
units of energy

Electronic entropy                ...      0.00000000 Eh      0.00 kcal/mol
Vibrational entropy               ...      0.01048427 Eh      6.58 kcal/mol
Rotational entropy                ...      0.01426453 Eh      8.95 kcal/mol
Translational entropy             ...      0.01962863 Eh     12.32 kcal/mol
-----------------------------------------------------------------------
Final entropy term                ...      0.04437742 Eh     27.85 kcal/mol

In case the symmetry of your molecule has not been determined correctly
or in case you have a reason to use a different symmetry number we print
out the resulting rotational entropy values for sn=1,12:

 non-linear molecules -----------------------------------
|  sn= 1 | S(rot)=       0.01426453 Eh      8.95 kcal/mol|
|  sn= 2 | S(rot)=       0.01361008 Eh      8.54 kcal/mol|
|  sn= 3 | S(rot)=       0.01322724 Eh      8.30 kcal/mol|
|  sn= 4 | S(rot)=       0.01295562 Eh      8.13 kcal/mol|
|  sn= 5 | S(rot)=       0.01274493 Eh      8.00 kcal/mol|
|  sn= 6 | S(rot)=       0.01257279 Eh      7.89 kcal/mol|
|  sn= 7 | S(rot)=       0.01242724 Eh      7.80 kcal/mol|
|  sn= 8 | S(rot)=       0.01230116 Eh      7.72 kcal/mol|
|  sn= 9 | S(rot)=       0.01218995 Eh      7.65 kcal/mol|
|  sn=10 | S(rot)=       0.01209047 Eh      7.59 kcal/mol|
|  sn=11 | S(rot)=       0.01200048 Eh      7.53 kcal/mol|
|  sn=12 | S(rot)=       0.01191833 Eh      7.48 kcal/mol|

                             ****ORCA TERMINATED NORMALLY****
TOTAL RUN TIME: 0 days 2 hours 44 minutes 11 seconds 495 msec
