                         Program Version 5.0.3 -  RELEASE  -
|  1> !B3LYP DEF2-TZVP D3BJ
|  2> !OPT FREQ TIGHTOPT TightSCF defgrid2
|  3> %SCF
|  4>     MaxIter 2000       # Here setting MaxIter to a very high number. Intended for systems that require sometimes 1000 iterations before converging (very rare).
|  5>     DIISMaxEq 5        # Default value is 5. A value of 15-40 necessary for difficult systems.
|  6>     directresetfreq 15 # Default value is 15. A value of 1 (very expensive) is sometimes required. A value between 1 and 15 may be more cost-effective.
|  7> END
|  8> %CPCM EPSILON 6.02 REFRAC 1.3723 END
|  9> %PAL NPROCS 32 END
| 10> %maxcore 2000 # This indicates you want ORCA to use only 2GB per core maximum, so ORCA will use only 2GB*32=64GB of memory in total.
| 11> * xyzfile 1 1 orca_IRC_F.xyz
| 12>
| 13>
| 14>                          ****END OF INPUT****
 Total Charge           Charge          ....    1
 Multiplicity           Mult            ....    1
 Number of Electrons    NEL             ....   86
Dispersion correction           -0.035327901
FINAL SINGLE POINT ENERGY     -1967.141486697832
Dispersion correction            ... done
Dispersion correction           -0.035282951
FINAL SINGLE POINT ENERGY     -1967.141927004894
Dispersion correction            ... done
Dispersion correction           -0.035220161
FINAL SINGLE POINT ENERGY     -1967.142398946613
Dispersion correction            ... done
FINAL SINGLE POINT ENERGY     -1967.142565184113
FINAL SINGLE POINT ENERGY     -1967.142771423574
FINAL SINGLE POINT ENERGY     -1967.142858994522
FINAL SINGLE POINT ENERGY     -1967.143004240482
FINAL SINGLE POINT ENERGY     -1967.143125072414
FINAL SINGLE POINT ENERGY     -1967.143265607267
FINAL SINGLE POINT ENERGY     -1967.143329750269
FINAL SINGLE POINT ENERGY     -1967.143352847158
FINAL SINGLE POINT ENERGY     -1967.143364130977
FINAL SINGLE POINT ENERGY     -1967.143369633747
FINAL SINGLE POINT ENERGY     -1967.143371894649
FINAL SINGLE POINT ENERGY     -1967.143372787898
FINAL SINGLE POINT ENERGY     -1967.143373623009
FINAL SINGLE POINT ENERGY     -1967.143374425394
Dispersion correction           -0.034990064
FINAL SINGLE POINT ENERGY     -1967.143374981806
Dispersion correction            ... done
Dispersion correction           -0.034989572
FINAL SINGLE POINT ENERGY     -1967.143375258205
Dispersion correction            ... done
                    ***********************HURRAY********************

CARTESIAN COORDINATES (ANGSTROEM)
---------------------------------
  C     -2.977397    1.809279    1.595615
  C     -1.891331    2.658969    1.490313
  C     -0.719359    2.400759    2.224871
  C     -0.656728    1.272780    3.064465
  C     -1.746620    0.432276    3.163861
  C     -2.905473    0.696540    2.429382
  H     -3.877909    2.009054    1.031083
  H     -3.753505    0.029010    2.510454
  H     -1.932632    3.525308    0.842625
  H      0.235472    1.048713    3.634196
  H     -1.701665   -0.433999    3.809830
  C      0.361481    3.325853    2.066237
  N      1.534778    3.290591    2.738852
  H      0.183441    4.233081    1.500654
  H      1.780490    2.004205   -0.533255
  H      2.073084    4.147807    2.816427
  H      1.679696    2.627025    3.492643
  Cu     1.925668    2.475817    0.894346

 Multiplicity           Mult            ....    1
 Number of Electrons    NEL             ....   86
 Basis Dimension        Dim             ....  347

ORBITAL ENERGIES
----------------

  NO   OCC          E(Eh)            E(eV)
   0   2.0000    -323.072941     -8791.2617
   1   2.0000     -38.873957     -1057.8142
   2   2.0000     -34.078750      -927.3299
   3   2.0000     -34.078082      -927.3118
   4   2.0000     -34.077155      -927.2865
   5   2.0000     -14.445630      -393.0856
   6   2.0000     -10.324458      -280.9428
   7   2.0000     -10.245397      -278.7914
   8   2.0000     -10.229871      -278.3690
   9   2.0000     -10.229199      -278.3507
  10   2.0000     -10.224219      -278.2151
  11   2.0000     -10.217453      -278.0310
  12   2.0000     -10.215367      -277.9743
  13   2.0000      -4.359403      -118.6254
  14   2.0000      -2.858452       -77.7824
  15   2.0000      -2.854189       -77.6664
  16   2.0000      -2.842853       -77.3580
  17   2.0000      -1.034580       -28.1524
  18   2.0000      -0.912127       -24.8202
  19   2.0000      -0.826981       -22.5033
  20   2.0000      -0.798169       -21.7193
  21   2.0000      -0.737456       -20.0672
  22   2.0000      -0.665489       -18.1089
  23   2.0000      -0.655264       -17.8306
  24   2.0000      -0.618319       -16.8253
  25   2.0000      -0.586896       -15.9702
  26   2.0000      -0.538543       -14.6545
  27   2.0000      -0.512395       -13.9430
  28   2.0000      -0.499145       -13.5824
  29   2.0000      -0.485609       -13.2141
  30   2.0000      -0.469749       -12.7825
  31   2.0000      -0.464527       -12.6404
  32   2.0000      -0.421799       -11.4777
  33   2.0000      -0.401534       -10.9263
  34   2.0000      -0.390203       -10.6180
  35   2.0000      -0.371087       -10.0978
  36   2.0000      -0.342304        -9.3146
  37   2.0000      -0.339890        -9.2489
  38   2.0000      -0.336038        -9.1441
  39   2.0000      -0.334782        -9.1099
  40   2.0000      -0.317306        -8.6343
  41   2.0000      -0.305316        -8.3081
  42   2.0000      -0.272521        -7.4157
  43   0.0000      -0.151787        -4.1303
  44   0.0000      -0.056947        -1.5496
  45   0.0000      -0.033114        -0.9011
  46   0.0000      -0.027500        -0.7483
  47   0.0000       0.017414         0.4739

MULLIKEN ATOMIC CHARGES
-----------------------
   0 C :   -0.112896
   1 C :   -0.178306
   2 C :    0.195110
   3 C :   -0.185500
   4 C :   -0.122290
   5 C :   -0.088308
   6 H :    0.160872
   7 H :    0.165273
   8 H :    0.162933
   9 H :    0.146957
  10 H :    0.160712
  11 C :    0.007847
  12 N :   -0.181773
  13 H :    0.222487
  14 H :   -0.071060
  15 H :    0.331267
  16 H :    0.323082
  17 Cu:    0.063593
Sum of atomic charges:    1.0000000

LOEWDIN ATOMIC CHARGES
----------------------
   0 C :   -0.108895
   1 C :   -0.046802
   2 C :   -0.138994
   3 C :   -0.057956
   4 C :   -0.106579
   5 C :   -0.074589
   6 H :    0.159715
   7 H :    0.160355
   8 H :    0.166044
   9 H :    0.160893
  10 H :    0.159652
  11 C :   -0.106532
  12 N :    0.162902
  13 H :    0.191948
  14 H :   -0.198897
  15 H :    0.232005
  16 H :    0.222417
  17 Cu:    0.223311

  Mayer bond orders larger than 0.100000
B(  0-C ,  1-C ) :   1.4403 B(  0-C ,  5-C ) :   1.3730 B(  0-C ,  6-H ) :   0.9672
B(  1-C ,  2-C ) :   1.2757 B(  1-C ,  8-H ) :   0.9614 B(  2-C ,  3-C ) :   1.2330
B(  2-C , 11-C ) :   1.1527 B(  3-C ,  4-C ) :   1.4815 B(  3-C ,  9-H ) :   0.9624
B(  4-C ,  5-C ) :   1.3467 B(  4-C , 10-H ) :   0.9632 B(  5-C ,  7-H ) :   0.9588
B( 11-C , 12-N ) :   1.2057 B( 11-C , 13-H ) :   0.9164 B( 11-C , 17-Cu) :   0.4976
B( 12-N , 15-H ) :   0.8707 B( 12-N , 16-H ) :   0.8722 B( 12-N , 17-Cu) :   0.2914
B( 14-H , 17-Cu) :   0.9364

Dispersion correction           -0.034987619
FINAL SINGLE POINT ENERGY     -1967.143375321146

DIPOLE MOMENT
-------------
                                X             Y             Z
Electronic contribution:     15.80084       3.44534      -4.90684
Nuclear contribution   :    -15.19760      -1.96896       7.43391
                        -----------------------------------------
Total Dipole Moment    :      0.60325       1.47638       2.52707
                        -----------------------------------------
Magnitude (a.u.)       :      2.98826
Magnitude (Debye)      :      7.59556

Dispersion correction in the Hessian             ... done   (      0.4 sec)

VIBRATIONAL FREQUENCIES
-----------------------

Scaling factor for frequencies =  1.000000000  (already applied!)

   0:         0.00 cm**-1
   1:         0.00 cm**-1
   2:         0.00 cm**-1
   3:         0.00 cm**-1
   4:         0.00 cm**-1
   5:         0.00 cm**-1
   6:        54.16 cm**-1
   7:        71.96 cm**-1
   8:       147.41 cm**-1
   9:       228.29 cm**-1
  10:       282.50 cm**-1
  11:       302.87 cm**-1
  12:       392.52 cm**-1
  13:       402.94 cm**-1
  14:       415.05 cm**-1
  15:       473.02 cm**-1
  16:       495.91 cm**-1
  17:       586.24 cm**-1
  18:       628.69 cm**-1
  19:       679.01 cm**-1
  20:       708.85 cm**-1
  21:       778.84 cm**-1
  22:       798.28 cm**-1
  23:       811.07 cm**-1
  24:       844.48 cm**-1
  25:       953.61 cm**-1
  26:       979.08 cm**-1
  27:       996.60 cm**-1
  28:      1019.09 cm**-1
  29:      1030.67 cm**-1
  30:      1046.72 cm**-1
  31:      1103.08 cm**-1
  32:      1138.13 cm**-1
  33:      1187.13 cm**-1
  34:      1210.47 cm**-1
  35:      1237.89 cm**-1
  36:      1310.15 cm**-1
  37:      1358.96 cm**-1
  38:      1378.00 cm**-1
  39:      1480.82 cm**-1
  40:      1514.56 cm**-1
  41:      1543.31 cm**-1
  42:      1608.99 cm**-1
  43:      1633.23 cm**-1
  44:      1647.50 cm**-1
  45:      1846.29 cm**-1
  46:      3184.34 cm**-1
  47:      3186.87 cm**-1
  48:      3189.62 cm**-1
  49:      3192.92 cm**-1
  50:      3203.74 cm**-1
  51:      3209.18 cm**-1
  52:      3487.40 cm**-1
  53:      3585.97 cm**-1

IR SPECTRUM
-----------

 Mode   freq       eps      Int      T**2         TX        TY        TZ
       cm**-1   L/(mol*cm) km/mol    a.u.
----------------------------------------------------------------------------
  6:     54.16   0.002282   11.53  0.013148  ( 0.090520 -0.067788  0.018937)
  7:     71.96   0.001123    5.67  0.004868  ( 0.045240  0.048105 -0.022530)
  8:    147.41   0.019565   98.88  0.041420  ( 0.184360 -0.020366 -0.083764)
  9:    228.29   0.005768   29.15  0.007885  ( 0.024609  0.081231 -0.026091)
 10:    282.50   0.053093  268.31  0.058650  (-0.201684  0.032608  0.130038)
 11:    302.87   0.040262  203.47  0.041484  ( 0.186579 -0.038811 -0.071876)
 12:    392.52   0.025494  128.84  0.020269  ( 0.132770  0.028708 -0.042626)
 13:    402.94   0.011908   60.18  0.009222  (-0.053868 -0.075207  0.025770)
 14:    415.05   0.016186   81.80  0.012170  (-0.036923  0.101861 -0.020750)
 15:    473.02   0.002825   14.28  0.001864  (-0.024687  0.017058  0.031038)
 16:    495.91   0.003943   19.93  0.002481  ( 0.002121 -0.007799  0.049150)
 17:    586.24   0.005624   28.42  0.002993  (-0.045207 -0.020389  0.023111)
 18:    628.69   0.000340    1.72  0.000169  ( 0.012020  0.001218  0.004761)
 19:    679.01   0.006097   30.81  0.002802  (-0.020171  0.023113  0.043139)
 20:    708.85   0.009502   48.02  0.004183  ( 0.018550  0.051927  0.033801)
 21:    778.84   0.057975  292.98  0.023229  (-0.130366  0.038600  0.068878)
 22:    798.28   0.018912   95.57  0.007393  ( 0.084322 -0.009656 -0.013770)
 23:    811.07   0.000859    4.34  0.000330  (-0.008709  0.005312  0.015046)
 24:    844.48   0.000231    1.17  0.000086  ( 0.009183 -0.000556  0.000929)
 25:    953.61   0.004490   22.69  0.001469  ( 0.032487  0.002591 -0.020179)
 26:    979.08   0.013610   68.78  0.004338  (-0.058670 -0.012032  0.027401)
 27:    996.60   0.001141    5.77  0.000357  (-0.016465 -0.005816  0.007242)
 28:   1019.09   0.001409    7.12  0.000431  (-0.019501 -0.007044  0.001192)
 29:   1030.67   0.000120    0.61  0.000036  ( 0.004521 -0.000957 -0.003874)
 30:   1046.72   0.000319    1.61  0.000095  (-0.004265 -0.008326 -0.002755)
 31:   1103.08   0.002105   10.64  0.000595  ( 0.015132 -0.018369  0.005391)
 32:   1138.13   0.002887   14.59  0.000792  ( 0.001429  0.007134  0.027179)
 33:   1187.13   0.000372    1.88  0.000098  ( 0.005013 -0.007475  0.004113)
 34:   1210.47   0.018535   93.67  0.004778  ( 0.061757  0.025532 -0.017678)
 35:   1237.89   0.009983   50.45  0.002517  ( 0.042417  0.012606 -0.023631)
 36:   1310.15   0.035760  180.72  0.008518  ( 0.068082  0.053252  0.032355)
 37:   1358.96   0.013800   69.74  0.003169  ( 0.055325  0.008026  0.006605)
 38:   1378.00   0.004382   22.14  0.000992  ( 0.014354  0.025414 -0.011851)
 39:   1480.82   0.018844   95.23  0.003971  (-0.033272 -0.049866  0.019429)
 40:   1514.56   0.014797   74.78  0.003049  ( 0.048628  0.023367  0.011748)
 41:   1543.31   0.028586  144.46  0.005780  ( 0.069140  0.030988 -0.006293)
 42:   1608.99   0.002246   11.35  0.000436  (-0.018815 -0.009020  0.000506)
 43:   1633.23   0.037121  187.59  0.007093  (-0.072535 -0.037648  0.020350)
 44:   1647.50   0.054114  273.47  0.010250  ( 0.081963  0.024961  0.053936)
 45:   1846.29   0.056650  286.28  0.009575  ( 0.024972 -0.024230 -0.091457)
 46:   3184.34   0.000820    4.14  0.000080  ( 0.004096 -0.007664 -0.002206)
 47:   3186.87   0.001839    9.30  0.000180  (-0.010310  0.008368  0.001950)
 48:   3189.62   0.002114   10.68  0.000207  (-0.007726  0.011486  0.003899)
 49:   3192.92   0.000355    1.80  0.000035  ( 0.005784 -0.000340  0.001080)
 50:   3203.74   0.000694    3.51  0.000068  (-0.004520  0.003681 -0.005797)
 51:   3209.18   0.001030    5.21  0.000100  ( 0.008523  0.004402 -0.002861)
 52:   3487.40   0.055720  281.59  0.004986  (-0.044247 -0.032819 -0.044172)
 53:   3585.97   0.032211  162.78  0.002803  (-0.014131 -0.046652  0.020665)

--------------------------
THERMOCHEMISTRY AT 298.15K
--------------------------

Temperature         ... 298.15 K
Pressure            ... 1.00 atm
Total Mass          ... 170.71 AMU

Throughout the following assumptions are being made:
  (1) The electronic state is orbitally nondegenerate
  (2) There are no thermally accessible electronically excited states
  (3) Hindered rotations indicated by low frequency modes are not
      treated as such but are treated as vibrations and this may
      cause some error
  (4) All equations used are the standard statistical mechanics
      equations for an ideal gas
  (5) All vibrations are strictly harmonic

freq.      54.16  E(vib)   ...       0.52
freq.      71.96  E(vib)   ...       0.50
freq.     147.41  E(vib)   ...       0.41
freq.     228.29  E(vib)   ...       0.32
freq.     282.50  E(vib)   ...       0.28
freq.     302.87  E(vib)   ...       0.26
freq.     392.52  E(vib)   ...       0.20
freq.     402.94  E(vib)   ...       0.19
freq.     415.05  E(vib)   ...       0.19
freq.     473.02  E(vib)   ...       0.15
freq.     495.91  E(vib)   ...       0.14
freq.     586.24  E(vib)   ...       0.11
freq.     628.69  E(vib)   ...       0.09
freq.     679.01  E(vib)   ...       0.08
freq.     708.85  E(vib)   ...       0.07
freq.     778.84  E(vib)   ...       0.05
freq.     798.28  E(vib)   ...       0.05
freq.     811.07  E(vib)   ...       0.05
freq.     844.48  E(vib)   ...       0.04
freq.     953.61  E(vib)   ...       0.03
freq.     979.08  E(vib)   ...       0.03
freq.     996.60  E(vib)   ...       0.02
freq.    1019.09  E(vib)   ...       0.02
freq.    1030.67  E(vib)   ...       0.02
freq.    1046.72  E(vib)   ...       0.02
freq.    1103.08  E(vib)   ...       0.02
freq.    1138.13  E(vib)   ...       0.01
freq.    1187.13  E(vib)   ...       0.01
freq.    1210.47  E(vib)   ...       0.01
freq.    1237.89  E(vib)   ...       0.01
freq.    1310.15  E(vib)   ...       0.01
freq.    1358.96  E(vib)   ...       0.01
freq.    1378.00  E(vib)   ...       0.01
freq.    1480.82  E(vib)   ...       0.00
freq.    1514.56  E(vib)   ...       0.00
freq.    1543.31  E(vib)   ...       0.00
freq.    1608.99  E(vib)   ...       0.00
freq.    1633.23  E(vib)   ...       0.00
freq.    1647.50  E(vib)   ...       0.00
freq.    1846.29  E(vib)   ...       0.00
freq.    3184.34  E(vib)   ...       0.00
freq.    3186.87  E(vib)   ...       0.00
freq.    3189.62  E(vib)   ...       0.00
freq.    3192.92  E(vib)   ...       0.00
freq.    3203.74  E(vib)   ...       0.00
freq.    3209.18  E(vib)   ...       0.00
freq.    3487.40  E(vib)   ...       0.00
freq.    3585.97  E(vib)   ...       0.00

------------
INNER ENERGY
------------

The inner energy is: U= E(el) + E(ZPE) + E(vib) + E(rot) + E(trans)
    E(el)   - is the total energy from the electronic structure calculation
              = E(kin-el) + E(nuc-el) + E(el-el) + E(nuc-nuc)
    E(ZPE)  - the the zero temperature vibrational energy from the frequency calculation
    E(vib)  - the the finite temperature correction to E(ZPE) due to population
              of excited vibrational states
    E(rot)  - is the rotational thermal energy
    E(trans)- is the translational thermal energy

Summary of contributions to the inner energy U:
Electronic energy                ...  -1967.14337532 Eh
Zero point energy                ...      0.14253676 Eh      89.44 kcal/mol
Thermal vibrational correction   ...      0.00624413 Eh       3.92 kcal/mol
Thermal rotational correction    ...      0.00141627 Eh       0.89 kcal/mol
Thermal translational correction ...      0.00141627 Eh       0.89 kcal/mol
-----------------------------------------------------------------------
Total thermal energy                  -1966.99176188 Eh

Summary of corrections to the electronic energy:
(perhaps to be used in another calculation)
Total thermal correction                  0.00907667 Eh       5.70 kcal/mol
Non-thermal (ZPE) correction              0.14253676 Eh      89.44 kcal/mol
-----------------------------------------------------------------------
Total correction                          0.15161344 Eh      95.14 kcal/mol

--------
ENTHALPY
--------

The enthalpy is H = U + kB*T
                kB is Boltzmann's constant
Total free energy                 ...  -1966.99176188 Eh
Thermal Enthalpy correction       ...      0.00094421 Eh       0.59 kcal/mol
-----------------------------------------------------------------------
Total Enthalpy                    ...  -1966.99081767 Eh

Note: Only C1 symmetry has been detected, increase convergence thresholds
      if your molecule has a higher symmetry. Symmetry factor of 1.0 is
      used for the rotational entropy correction.

Note: Rotational entropy computed according to Herzberg
Infrared and Raman Spectra, Chapter V,1, Van Nostrand Reinhold, 1945
Point Group:  C1, Symmetry Number:   1
Rotational constants in cm-1:     0.095612     0.021433     0.020687

Vibrational entropy computed according to the QRRHO of S. Grimme
Chem.Eur.J. 2012 18 9955

-------
ENTROPY
-------

The entropy contributions are T*S = T*(S(el)+S(vib)+S(rot)+S(trans))
     S(el)   - electronic entropy
     S(vib)  - vibrational entropy
     S(rot)  - rotational entropy
     S(trans)- translational entropy
The entropies will be listed as multiplied by the temperature to get
units of energy

Electronic entropy                ...      0.00000000 Eh      0.00 kcal/mol
Vibrational entropy               ...      0.01040989 Eh      6.53 kcal/mol
Rotational entropy                ...      0.01426407 Eh      8.95 kcal/mol
Translational entropy             ...      0.01962863 Eh     12.32 kcal/mol
-----------------------------------------------------------------------
Final entropy term                ...      0.04430258 Eh     27.80 kcal/mol

In case the symmetry of your molecule has not been determined correctly
or in case you have a reason to use a different symmetry number we print
out the resulting rotational entropy values for sn=1,12 :
 --------------------------------------------------------
|  sn= 1 | S(rot)=       0.01426407 Eh      8.95 kcal/mol|
|  sn= 2 | S(rot)=       0.01360961 Eh      8.54 kcal/mol|
|  sn= 3 | S(rot)=       0.01322678 Eh      8.30 kcal/mol|
|  sn= 4 | S(rot)=       0.01295516 Eh      8.13 kcal/mol|
|  sn= 5 | S(rot)=       0.01274447 Eh      8.00 kcal/mol|
|  sn= 6 | S(rot)=       0.01257232 Eh      7.89 kcal/mol|
|  sn= 7 | S(rot)=       0.01242678 Eh      7.80 kcal/mol|
|  sn= 8 | S(rot)=       0.01230070 Eh      7.72 kcal/mol|
|  sn= 9 | S(rot)=       0.01218949 Eh      7.65 kcal/mol|
|  sn=10 | S(rot)=       0.01209001 Eh      7.59 kcal/mol|
|  sn=11 | S(rot)=       0.01200002 Eh      7.53 kcal/mol|
|  sn=12 | S(rot)=       0.01191787 Eh      7.48 kcal/mol|
 --------------------------------------------------------

                             ****ORCA TERMINATED NORMALLY****
TOTAL RUN TIME: 0 days 2 hours 18 minutes 54 seconds 315 msec
