                         Program Version 5.0.3 -  RELEASE  -
|  1> !B3LYP DEF2-TZVP D3BJ
|  2> !OPT FREQ TIGHTOPT TightSCF defgrid2
|  3> %SCF
|  4>     MaxIter 2000       # Here setting MaxIter to a very high number. Intended for systems that require sometimes 1000 iterations before converging (very rare).
|  5>     DIISMaxEq 5        # Default value is 5. A value of 15-40 necessary for difficult systems.
|  6>     directresetfreq 15 # Default value is 15. A value of 1 (very expensive) is sometimes required. A value between 1 and 15 may be more cost-effective.
|  7> END
|  8> %CPCM EPSILON 6.02 REFRAC 1.3723 END
|  9> %PAL NPROCS 32 END
| 10> %maxcore 2000 # This indicates you want ORCA to use only 2GB per core maximum, so ORCA will use only 2GB*32=64GB of memory in total.
| 11> * xyzfile 1 1 reactant_opt_constrained.xyz
| 12>
| 13>                          ****END OF INPUT****
 Total Charge           Charge          ....    1
 Multiplicity           Mult            ....    1
 Number of Electrons    NEL             ....   86
Dispersion correction           -0.037504693
FINAL SINGLE POINT ENERGY     -1967.195634616517
Dispersion correction            ... done
Dispersion correction           -0.037512841
FINAL SINGLE POINT ENERGY     -1967.196138248479
Dispersion correction            ... done
Dispersion correction           -0.037516557
FINAL SINGLE POINT ENERGY     -1967.196189939528
Dispersion correction            ... done
FINAL SINGLE POINT ENERGY     -1967.196197835952
FINAL SINGLE POINT ENERGY     -1967.196202177554
FINAL SINGLE POINT ENERGY     -1967.196202381996
FINAL SINGLE POINT ENERGY     -1967.196202350572
FINAL SINGLE POINT ENERGY     -1967.196202089051
Dispersion correction           -0.037542001
FINAL SINGLE POINT ENERGY     -1967.196201740840
Dispersion correction            ... done
Dispersion correction           -0.037544174
FINAL SINGLE POINT ENERGY     -1967.196201625495
Dispersion correction            ... done
                    ***********************HURRAY********************

CARTESIAN COORDINATES (ANGSTROEM)
---------------------------------
  C     -2.983016    1.805909    1.618166
  C     -1.890264    2.662351    1.508778
  C     -0.723388    2.407985    2.222229
  C     -0.659275    1.270597    3.042771
  C     -1.756465    0.420588    3.159633
  C     -2.922191    0.692619    2.449264
  H     -3.885584    2.013135    1.057595
  H     -3.774943    0.031730    2.534495
  H     -1.947080    3.535778    0.870370
  H      0.272793    1.019723    3.542888
  H     -1.692190   -0.459094    3.786937
  C      0.419449    3.388166    2.232339
  N      0.316093    4.232427    3.464312
  H      0.411941    4.014753    1.340039
  H      1.372801    2.863825    2.281353
  H      1.214410    4.651792    3.687901
  H     -0.327699    5.002730    3.298991
  Cu    -0.476922    3.075522    4.885386

 Multiplicity           Mult            ....    1
 Number of Electrons    NEL             ....   86
 Basis Dimension        Dim             ....  347

ORBITAL ENERGIES
----------------

  NO   OCC          E(Eh)            E(eV)
   0   2.0000    -323.021463     -8789.8609
   1   2.0000     -38.809770     -1056.0675
   2   2.0000     -34.014736      -925.5880
   3   2.0000     -34.014631      -925.5852
   4   2.0000     -34.014364      -925.5779
   5   2.0000     -14.382634      -391.3714
   6   2.0000     -10.238832      -278.6128
   7   2.0000     -10.217042      -278.0198
   8   2.0000     -10.209211      -277.8068
   9   2.0000     -10.204612      -277.6816
  10   2.0000     -10.202272      -277.6179
  11   2.0000     -10.201717      -277.6028
  12   2.0000     -10.199853      -277.5521
  13   2.0000      -4.303796      -117.1122
  14   2.0000      -2.798969       -76.1638
  15   2.0000      -2.798716       -76.1569
  16   2.0000      -2.797553       -76.1253
  17   2.0000      -0.950922       -25.8759
  18   2.0000      -0.888234       -24.1701
  19   2.0000      -0.796267       -21.6675
  20   2.0000      -0.778243       -21.1771
  21   2.0000      -0.706174       -19.2160
  22   2.0000      -0.639781       -17.4093
  23   2.0000      -0.615783       -16.7563
  24   2.0000      -0.558308       -15.1923
  25   2.0000      -0.539733       -14.6869
  26   2.0000      -0.517498       -14.0818
  27   2.0000      -0.485722       -13.2172
  28   2.0000      -0.482266       -13.1231
  29   2.0000      -0.452489       -12.3129
  30   2.0000      -0.449124       -12.2213
  31   2.0000      -0.423113       -11.5135
  32   2.0000      -0.402353       -10.9486
  33   2.0000      -0.385919       -10.5014
  34   2.0000      -0.372093       -10.1252
  35   2.0000      -0.363379        -9.8880
  36   2.0000      -0.307035        -8.3548
  37   2.0000      -0.295967        -8.0537
  38   2.0000      -0.292483        -7.9589
  39   2.0000      -0.291980        -7.9452
  40   2.0000      -0.286128        -7.7859
  41   2.0000      -0.284121        -7.7313
  42   2.0000      -0.257955        -7.0193
  43   0.0000      -0.090477        -2.4620
  44   0.0000      -0.052951        -1.4409
  45   0.0000      -0.044207        -1.2029
  46   0.0000       0.015109         0.4111
  47   0.0000       0.025789         0.7017

MULLIKEN ATOMIC CHARGES
-----------------------
   0 C :   -0.103795
   1 C :   -0.225726
   2 C :    0.223979
   3 C :   -0.240447
   4 C :   -0.113167
   5 C :   -0.143503
   6 H :    0.148840
   7 H :    0.148931
   8 H :    0.142486
   9 H :    0.152494
  10 H :    0.150734
  11 C :   -0.134539
  12 N :   -0.435751
  13 H :    0.149416
  14 H :    0.154441
  15 H :    0.276799
  16 H :    0.275798
  17 Cu:    0.573008
Sum of atomic charges:    1.0000000

LOEWDIN ATOMIC CHARGES
----------------------
   0 C :   -0.119596
   1 C :   -0.098883
   2 C :   -0.144134
   3 C :   -0.108851
   4 C :   -0.116499
   5 C :   -0.127147
   6 H :    0.153405
   7 H :    0.152764
   8 H :    0.156088
   9 H :    0.174578
  10 H :    0.154282
  11 C :   -0.213168
  12 N :   -0.011097
  13 H :    0.142543
  14 H :    0.151837
  15 H :    0.193276
  16 H :    0.196397
  17 Cu:    0.464205

  Mayer bond orders larger than 0.100000
B(  0-C ,  1-C ) :   1.3872 B(  0-C ,  5-C ) :   1.3902 B(  0-C ,  6-H ) :   0.9720
B(  1-C ,  2-C ) :   1.3999 B(  1-C ,  8-H ) :   0.9762 B(  2-C ,  3-C ) :   1.2397
B(  2-C , 11-C ) :   0.9305 B(  2-C , 12-N ) :  -0.1112 B(  3-C ,  4-C ) :   1.3832
B(  3-C ,  9-H ) :   0.9612 B(  3-C , 17-Cu) :   0.1171 B(  4-C ,  5-C ) :   1.3878
B(  4-C , 10-H ) :   0.9699 B(  5-C ,  7-H ) :   0.9685 B( 11-C , 12-N ) :   0.9154
B( 11-C , 13-H ) :   0.9825 B( 11-C , 14-H ) :   0.9711 B( 12-N , 15-H ) :   0.9089
B( 12-N , 16-H ) :   0.9074 B( 12-N , 17-Cu) :   0.5742

Dispersion correction           -0.037545353
FINAL SINGLE POINT ENERGY     -1967.196201640693

DIPOLE MOMENT
-------------
                                X             Y             Z
Electronic contribution:      3.38097       4.37523      16.55144
Nuclear contribution   :     -2.29538      -2.86561     -15.32624
                        -----------------------------------------
Total Dipole Moment    :      1.08559       1.50962       1.22520
                        -----------------------------------------
Magnitude (a.u.)       :      2.22678
Magnitude (Debye)      :      5.66003

Dispersion correction in the Hessian             ... done   (      0.4 sec)

VIBRATIONAL FREQUENCIES
-----------------------

Scaling factor for frequencies =  1.000000000  (already applied!)

   0:         0.00 cm**-1
   1:         0.00 cm**-1
   2:         0.00 cm**-1
   3:         0.00 cm**-1
   4:         0.00 cm**-1
   5:         0.00 cm**-1
   6:        41.50 cm**-1
   7:        69.08 cm**-1
   8:       112.45 cm**-1
   9:       151.91 cm**-1
  10:       300.90 cm**-1
  11:       349.83 cm**-1
  12:       413.72 cm**-1
  13:       426.30 cm**-1
  14:       509.27 cm**-1
  15:       542.67 cm**-1
  16:       631.72 cm**-1
  17:       636.50 cm**-1
  18:       728.53 cm**-1
  19:       775.03 cm**-1
  20:       818.62 cm**-1
  21:       864.44 cm**-1
  22:       930.40 cm**-1
  23:       939.44 cm**-1
  24:       978.48 cm**-1
  25:       989.74 cm**-1
  26:      1015.42 cm**-1
  27:      1022.88 cm**-1
  28:      1048.74 cm**-1
  29:      1075.64 cm**-1
  30:      1107.18 cm**-1
  31:      1160.23 cm**-1
  32:      1179.71 cm**-1
  33:      1194.94 cm**-1
  34:      1233.15 cm**-1
  35:      1308.45 cm**-1
  36:      1344.37 cm**-1
  37:      1363.04 cm**-1
  38:      1398.46 cm**-1
  39:      1484.37 cm**-1
  40:      1497.12 cm**-1
  41:      1526.87 cm**-1
  42:      1618.88 cm**-1
  43:      1620.36 cm**-1
  44:      1637.43 cm**-1
  45:      3065.36 cm**-1
  46:      3116.40 cm**-1
  47:      3127.56 cm**-1
  48:      3171.01 cm**-1
  49:      3180.57 cm**-1
  50:      3188.84 cm**-1
  51:      3198.92 cm**-1
  52:      3468.23 cm**-1
  53:      3529.91 cm**-1

IR SPECTRUM
-----------

 Mode   freq       eps      Int      T**2         TX        TY        TZ
       cm**-1   L/(mol*cm) km/mol    a.u.
----------------------------------------------------------------------------
  6:     41.50   0.000582    2.94  0.004374  ( 0.028434  0.029619  0.051852)
  7:     69.08   0.001025    5.18  0.004631  ( 0.024003  0.040284  0.049315)
  8:    112.45   0.000618    3.12  0.001715  (-0.041056  0.005437  0.000380)
  9:    151.91   0.002962   14.97  0.006085  (-0.003275 -0.031911 -0.071104)
 10:    300.90   0.000471    2.38  0.000489  (-0.011700 -0.015280 -0.010881)
 11:    349.83   0.000358    1.81  0.000320  (-0.014809  0.009831 -0.001912)
 12:    413.72   0.000626    3.16  0.000472  (-0.003484  0.016404  0.013808)
 13:    426.30   0.000298    1.50  0.000218  (-0.000953  0.014533  0.002417)
 14:    509.27   0.002251   11.38  0.001379  ( 0.000039  0.020278  0.031115)
 15:    542.67   0.007183   36.30  0.004130  ( 0.057286 -0.011548  0.026748)
 16:    631.72   0.008187   41.37  0.004044  ( 0.063429 -0.004445  0.001140)
 17:    636.50   0.000033    0.17  0.000016  ( 0.000087 -0.004045 -0.000117)
 18:    728.53   0.016854   85.17  0.007219  (-0.033094  0.043840  0.064825)
 19:    775.03   0.008961   45.29  0.003608  (-0.004740  0.033560  0.049593)
 20:    818.62   0.004049   20.46  0.001544  (-0.012491 -0.020741 -0.030942)
 21:    864.44   0.000371    1.87  0.000134  ( 0.007860 -0.001256  0.008394)
 22:    930.40   0.008444   42.67  0.002832  ( 0.005086 -0.021543 -0.048397)
 23:    939.44   0.001960    9.91  0.000651  (-0.009448 -0.011910 -0.020497)
 24:    978.48   0.003251   16.43  0.001037  ( 0.007744  0.019403  0.024500)
 25:    989.74   0.000247    1.25  0.000078  ( 0.003528  0.001474  0.007961)
 26:   1015.42   0.000183    0.93  0.000056  (-0.001310  0.002025  0.007102)
 27:   1022.88   0.000380    1.92  0.000116  (-0.004580 -0.003289 -0.009175)
 28:   1048.74   0.001028    5.20  0.000306  (-0.013609 -0.010342  0.003716)
 29:   1075.64   0.016501   83.39  0.004787  (-0.007814 -0.011028  0.067857)
 30:   1107.18   0.003764   19.02  0.001061  ( 0.019041 -0.006125 -0.025706)
 31:   1160.23   0.001160    5.86  0.000312  ( 0.002782 -0.006830  0.016051)
 32:   1179.71   0.000008    0.04  0.000002  ( 0.000197  0.000751 -0.001181)
 33:   1194.94   0.000051    0.26  0.000013  ( 0.003458  0.000477 -0.001037)
 34:   1233.15   0.002804   14.17  0.000710  ( 0.018618  0.017626 -0.007228)
 35:   1308.45   0.000605    3.06  0.000144  (-0.003521 -0.010771  0.003999)
 36:   1344.37   0.000177    0.89  0.000041  (-0.003100  0.004782  0.002919)
 37:   1363.04   0.000005    0.02  0.000001  (-0.000076 -0.000351 -0.000980)
 38:   1398.46   0.003617   18.28  0.000807  (-0.018044 -0.021014 -0.006320)
 39:   1484.37   0.001735    8.77  0.000365  (-0.009886  0.013808 -0.008735)
 40:   1497.12   0.000927    4.68  0.000193  ( 0.012599  0.000541 -0.005842)
 41:   1526.87   0.001914    9.67  0.000391  (-0.013935 -0.012424  0.006531)
 42:   1618.88   0.003134   15.84  0.000604  (-0.008806 -0.020509 -0.010294)
 43:   1620.36   0.007610   38.46  0.001466  ( 0.004693 -0.037995  0.000169)
 44:   1637.43   0.001386    7.00  0.000264  (-0.007498 -0.011439 -0.008776)
 45:   3065.36   0.005694   28.78  0.000580  (-0.014864 -0.004983  0.018274)
 46:   3116.40   0.001797    9.08  0.000180  (-0.008348  0.007814 -0.007017)
 47:   3127.56   0.001492    7.54  0.000149  ( 0.010045  0.003044  0.006221)
 48:   3171.01   0.000700    3.54  0.000069  (-0.003223 -0.006429  0.004149)
 49:   3180.57   0.000417    2.11  0.000041  (-0.004080 -0.004481  0.002055)
 50:   3188.84   0.002759   13.94  0.000270  (-0.006845  0.010631 -0.010494)
 51:   3198.92   0.001825    9.22  0.000178  ( 0.010830  0.007714  0.001093)
 52:   3468.23   0.005821   29.41  0.000524  ( 0.004129  0.022373  0.002470)
 53:   3529.91   0.010987   55.52  0.000971  ( 0.029097 -0.007329  0.008424)

--------------------------
THERMOCHEMISTRY AT 298.15K
--------------------------

Temperature         ... 298.15 K
Pressure            ... 1.00 atm
Total Mass          ... 170.71 AMU

Throughout the following assumptions are being made:
  (1) The electronic state is orbitally nondegenerate
  (2) There are no thermally accessible electronically excited states
  (3) Hindered rotations indicated by low frequency modes are not
      treated as such but are treated as vibrations and this may
      cause some error
  (4) All equations used are the standard statistical mechanics
      equations for an ideal gas
  (5) All vibrations are strictly harmonic

freq.      41.50  E(vib)   ...       0.54
freq.      69.08  E(vib)   ...       0.50
freq.     112.45  E(vib)   ...       0.45
freq.     151.91  E(vib)   ...       0.40
freq.     300.90  E(vib)   ...       0.26
freq.     349.83  E(vib)   ...       0.23
freq.     413.72  E(vib)   ...       0.19
freq.     426.30  E(vib)   ...       0.18
freq.     509.27  E(vib)   ...       0.14
freq.     542.67  E(vib)   ...       0.12
freq.     631.72  E(vib)   ...       0.09
freq.     636.50  E(vib)   ...       0.09
freq.     728.53  E(vib)   ...       0.06
freq.     775.03  E(vib)   ...       0.05
freq.     818.62  E(vib)   ...       0.05
freq.     864.44  E(vib)   ...       0.04
freq.     930.40  E(vib)   ...       0.03
freq.     939.44  E(vib)   ...       0.03
freq.     978.48  E(vib)   ...       0.03
freq.     989.74  E(vib)   ...       0.02
freq.    1015.42  E(vib)   ...       0.02
freq.    1022.88  E(vib)   ...       0.02
freq.    1048.74  E(vib)   ...       0.02
freq.    1075.64  E(vib)   ...       0.02
freq.    1107.18  E(vib)   ...       0.02
freq.    1160.23  E(vib)   ...       0.01
freq.    1179.71  E(vib)   ...       0.01
freq.    1194.94  E(vib)   ...       0.01
freq.    1233.15  E(vib)   ...       0.01
freq.    1308.45  E(vib)   ...       0.01
freq.    1344.37  E(vib)   ...       0.01
freq.    1363.04  E(vib)   ...       0.01
freq.    1398.46  E(vib)   ...       0.00
freq.    1484.37  E(vib)   ...       0.00
freq.    1497.12  E(vib)   ...       0.00
freq.    1526.87  E(vib)   ...       0.00
freq.    1618.88  E(vib)   ...       0.00
freq.    1620.36  E(vib)   ...       0.00
freq.    1637.43  E(vib)   ...       0.00
freq.    3065.36  E(vib)   ...       0.00
freq.    3116.40  E(vib)   ...       0.00
freq.    3127.56  E(vib)   ...       0.00
freq.    3171.01  E(vib)   ...       0.00
freq.    3180.57  E(vib)   ...       0.00
freq.    3188.84  E(vib)   ...       0.00
freq.    3198.92  E(vib)   ...       0.00
freq.    3468.23  E(vib)   ...       0.00
freq.    3529.91  E(vib)   ...       0.00

------------
INNER ENERGY
------------

The inner energy is: U= E(el) + E(ZPE) + E(vib) + E(rot) + E(trans)
    E(el)   - is the total energy from the electronic structure calculation
              = E(kin-el) + E(nuc-el) + E(el-el) + E(nuc-nuc)
    E(ZPE)  - the the zero temperature vibrational energy from the frequency calculation
    E(vib)  - the the finite temperature correction to E(ZPE) due to population
              of excited vibrational states
    E(rot)  - is the rotational thermal energy
    E(trans)- is the translational thermal energy

Summary of contributions to the inner energy U:
Electronic energy                ...  -1967.19620164 Eh
Zero point energy                ...      0.14829630 Eh      93.06 kcal/mol
Thermal vibrational correction   ...      0.00583247 Eh       3.66 kcal/mol
Thermal rotational correction    ...      0.00141627 Eh       0.89 kcal/mol
Thermal translational correction ...      0.00141627 Eh       0.89 kcal/mol
-----------------------------------------------------------------------
Total thermal energy                  -1967.03924033 Eh

Summary of corrections to the electronic energy:
(perhaps to be used in another calculation)
Total thermal correction                  0.00866501 Eh       5.44 kcal/mol
Non-thermal (ZPE) correction              0.14829630 Eh      93.06 kcal/mol
-----------------------------------------------------------------------
Total correction                          0.15696131 Eh      98.49 kcal/mol

--------
ENTHALPY
--------

The enthalpy is H = U + kB*T
                kB is Boltzmann's constant
Total free energy                 ...  -1967.03924033 Eh
Thermal Enthalpy correction       ...      0.00094421 Eh       0.59 kcal/mol
-----------------------------------------------------------------------
Total Enthalpy                    ...  -1967.03829612 Eh

Note: Only C1 symmetry has been detected, increase convergence thresholds
      if your molecule has a higher symmetry. Symmetry factor of 1.0 is
      used for the rotational entropy correction.

Note: Rotational entropy computed according to Herzberg
Infrared and Raman Spectra, Chapter V,1, Van Nostrand Reinhold, 1945
Point Group:  C1, Symmetry Number:   1
Rotational constants in cm-1:     0.070842     0.031699     0.025631

Vibrational entropy computed according to the QRRHO of S. Grimme
Chem.Eur.J. 2012 18 9955

-------
ENTROPY
-------

The entropy contributions are T*S = T*(S(el)+S(vib)+S(rot)+S(trans))
     S(el)   - electronic entropy
     S(vib)  - vibrational entropy
     S(rot)  - rotational entropy
     S(trans)- translational entropy
The entropies will be listed as multiplied by the temperature to get
units of energy

Electronic entropy                ...      0.00000000 Eh      0.00 kcal/mol
Vibrational entropy               ...      0.01006364 Eh      6.32 kcal/mol
Rotational entropy                ...      0.01411971 Eh      8.86 kcal/mol
Translational entropy             ...      0.01962863 Eh     12.32 kcal/mol
-----------------------------------------------------------------------
Final entropy term                ...      0.04381197 Eh     27.49 kcal/mol

In case the symmetry of your molecule has not been determined correctly
or in case you have a reason to use a different symmetry number we print
out the resulting rotational entropy values for sn=1,12 :
 --------------------------------------------------------
|  sn= 1 | S(rot)=       0.01411971 Eh      8.86 kcal/mol|
|  sn= 2 | S(rot)=       0.01346525 Eh      8.45 kcal/mol|
|  sn= 3 | S(rot)=       0.01308242 Eh      8.21 kcal/mol|
|  sn= 4 | S(rot)=       0.01281079 Eh      8.04 kcal/mol|
|  sn= 5 | S(rot)=       0.01260011 Eh      7.91 kcal/mol|
|  sn= 6 | S(rot)=       0.01242796 Eh      7.80 kcal/mol|
|  sn= 7 | S(rot)=       0.01228242 Eh      7.71 kcal/mol|
|  sn= 8 | S(rot)=       0.01215634 Eh      7.63 kcal/mol|
|  sn= 9 | S(rot)=       0.01204513 Eh      7.56 kcal/mol|
|  sn=10 | S(rot)=       0.01194565 Eh      7.50 kcal/mol|
|  sn=11 | S(rot)=       0.01185566 Eh      7.44 kcal/mol|
|  sn=12 | S(rot)=       0.01177351 Eh      7.39 kcal/mol|
 --------------------------------------------------------

                             ****ORCA TERMINATED NORMALLY****
TOTAL RUN TIME: 0 days 1 hours 14 minutes 43 seconds 791 msec
